       N       E                     dE             d eps       ncg     rms          rms(c)
DAV:   1     0.621663034497E+04    0.62166E+04   -0.20782E+05  8736   0.153E+03
DAV:   2     0.336943810492E+03   -0.58797E+04   -0.56958E+04  8832   0.564E+02
DAV:   3    -0.658954813295E+03   -0.99590E+03   -0.93190E+03 13200   0.192E+02
DAV:   4    -0.787544127856E+03   -0.12859E+03   -0.12606E+03 15864   0.832E+01
DAV:   5    -0.798516996027E+03   -0.10973E+02   -0.10887E+02 16656   0.217E+01    0.799E+01
RMM:   6    -0.100106270243E+04   -0.20255E+03   -0.30328E+03 11837   0.149E+02    0.131E+02
RMM:   7    -0.649279483606E+03    0.35178E+03   -0.30831E+02 14352   0.371E+01    0.445E+01
RMM:   8    -0.645527898106E+03    0.37516E+01   -0.51788E+01 14026   0.192E+01    0.312E+01
RMM:   9    -0.642405814408E+03    0.31221E+01   -0.21805E+01 14030   0.967E+00    0.300E+01
RMM:  10    -0.637543535559E+03    0.48623E+01   -0.76489E+00 13632   0.822E+00    0.164E+01
RMM:  11    -0.640643144830E+03   -0.30996E+01   -0.65988E+00 13760   0.585E+00    0.291E+01
RMM:  12    -0.637294867983E+03    0.33483E+01   -0.46704E+00 13645   0.590E+00    0.138E+01
RMM:  13    -0.637662960931E+03   -0.36809E+00   -0.40971E+00 14044   0.352E+00    0.166E+01
RMM:  14    -0.636765986016E+03    0.89697E+00   -0.34299E+00 14222   0.350E+00    0.799E+00
RMM:  15    -0.637146272338E+03   -0.38029E+00   -0.11574E+00 13609   0.268E+00    0.130E+01
RMM:  16    -0.636450075839E+03    0.69620E+00   -0.82641E-01 13822   0.223E+00    0.467E+00
RMM:  17    -0.636581825138E+03   -0.13175E+00   -0.52376E-01 13948   0.152E+00    0.862E+00
RMM:  18    -0.636348853004E+03    0.23297E+00   -0.31866E-01 14040   0.136E+00    0.234E+00
RMM:  19    -0.636350326075E+03   -0.14731E-02   -0.37756E-01 14218   0.864E-01    0.113E+00
RMM:  20    -0.636344709360E+03    0.56167E-02   -0.10612E-01 13912   0.705E-01    0.936E-01
RMM:  21    -0.636341210694E+03    0.34987E-02   -0.75427E-02 13975   0.442E-01    0.330E-01
RMM:  22    -0.636342690951E+03   -0.14803E-02   -0.35095E-02 13861   0.338E-01    0.109E-01
RMM:  23    -0.636344082293E+03   -0.13913E-02   -0.18208E-02 13337   0.193E-01    0.120E-01
RMM:  24    -0.636344987776E+03   -0.90548E-03   -0.11785E-02 12399   0.142E-01    0.972E-02
RMM:  25    -0.636345652759E+03   -0.66498E-03   -0.86797E-03 12528   0.111E-01    0.365E-02
RMM:  26    -0.636346036350E+03   -0.38359E-03   -0.49305E-03 11838   0.903E-02    0.225E-02
RMM:  27    -0.636346313263E+03   -0.27691E-03   -0.32274E-03 11594   0.705E-02    0.219E-02
RMM:  28    -0.636346512972E+03   -0.19971E-03   -0.23235E-03 11361   0.569E-02    0.148E-02
RMM:  29    -0.636346639699E+03   -0.12673E-03   -0.14849E-03 11312   0.464E-02    0.104E-02
RMM:  30    -0.636346732521E+03   -0.92823E-04   -0.10604E-03 11043   0.381E-02    0.856E-03
RMM:  31    -0.636346791482E+03   -0.58960E-04   -0.68432E-04 10779   0.315E-02    0.456E-03
RMM:  32    -0.636346832057E+03   -0.40576E-04   -0.46651E-04 10655   0.267E-02    0.235E-03
RMM:  33    -0.636346860058E+03   -0.28001E-04   -0.32215E-04  9970   0.224E-02    0.330E-03
RMM:  34    -0.636346878458E+03   -0.18400E-04   -0.21301E-04  9723   0.191E-02    0.855E-04
RMM:  35    -0.636346890333E+03   -0.11875E-04   -0.14207E-04  8946   0.165E-02    0.301E-03
RMM:  36    -0.636346897719E+03   -0.73855E-05   -0.90709E-05  8538   0.144E-02
   1 F= -.63634690E+03 E0= -.63625548E+03  d E =-.636347E+03
       N       E                     dE             d eps       ncg     rms          rms(c)
DAV:   1    -0.620141269362E+03    0.16206E+02   -0.25294E+03  8736   0.142E+02    0.103E+01
RMM:   2    -0.649653550813E+03   -0.29512E+02   -0.24470E+02 14266   0.433E+01    0.343E+01
RMM:   3    -0.642766706755E+03    0.68868E+01   -0.23790E+01 12412   0.173E+01    0.153E+01
RMM:   4    -0.644206418973E+03   -0.14397E+01   -0.95284E+00 14116   0.644E+00    0.211E+01
RMM:   5    -0.641950007599E+03    0.22564E+01   -0.27709E+00 13604   0.524E+00    0.695E+00
RMM:   6    -0.642391618940E+03   -0.44161E+00   -0.19910E+00 14150   0.285E+00    0.127E+01
RMM:   7    -0.641951888165E+03    0.43973E+00   -0.11502E+00 13914   0.266E+00    0.809E+00
RMM:   8    -0.642074368774E+03   -0.12248E+00   -0.10855E+00 14258   0.213E+00    0.898E+00
RMM:   9    -0.641779943763E+03    0.29443E+00   -0.45048E-01 13719   0.195E+00    0.546E+00
RMM:  10    -0.641693534609E+03    0.86409E-01   -0.31731E-01 14359   0.110E+00    0.233E+00
RMM:  11    -0.641703986679E+03   -0.10452E-01   -0.15493E-01 14073   0.781E-01    0.312E+00
RMM:  12    -0.641675096687E+03    0.28890E-01   -0.96464E-02 14003   0.644E-01    0.116E+00
RMM:  13    -0.641676590348E+03   -0.14937E-02   -0.90143E-02 14171   0.433E-01    0.532E-01
RMM:  14    -0.641677970363E+03   -0.13800E-02   -0.29473E-02 14189   0.359E-01    0.305E-01
RMM:  15    -0.641679030142E+03   -0.10598E-02   -0.20183E-02 14196   0.195E-01    0.216E-01
RMM:  16    -0.641680461334E+03   -0.14312E-02   -0.13484E-02 14035   0.180E-01    0.148E-01
RMM:  17    -0.641680671634E+03   -0.21030E-03   -0.59786E-03 13034   0.144E-01    0.882E-02
RMM:  18    -0.641680820300E+03   -0.14867E-03   -0.42733E-03 13030   0.884E-02    0.479E-02
RMM:  19    -0.641680998394E+03   -0.17809E-03   -0.23919E-03 12032   0.776E-02    0.299E-02
RMM:  20    -0.641681087317E+03   -0.88923E-04   -0.12418E-03 11212   0.550E-02    0.225E-02
RMM:  21    -0.641681136866E+03   -0.49549E-04   -0.77786E-04 11126   0.421E-02    0.134E-02
RMM:  22    -0.641681180212E+03   -0.43346E-04   -0.49075E-04 11094   0.345E-02    0.935E-03
RMM:  23    -0.641681205336E+03   -0.25123E-04   -0.30342E-04 10795   0.260E-02    0.646E-03
RMM:  24    -0.641681221878E+03   -0.16542E-04   -0.21179E-04 10561   0.216E-02    0.464E-03
RMM:  25    -0.641681232473E+03   -0.10595E-04   -0.12449E-04  9932   0.180E-02    0.328E-03
RMM:  26    -0.641681238805E+03   -0.63321E-05   -0.76728E-05  9147   0.164E-02
   2 F= -.64168124E+03 E0= -.64159891E+03  d E =-.533434E+01
       N       E                     dE             d eps       ncg     rms          rms(c)
DAV:   1    -0.641356772299E+03    0.32446E+00   -0.52130E+01  8736   0.205E+01    0.180E+00
RMM:   2    -0.642189584623E+03   -0.83281E+00   -0.54495E+00 14383   0.632E+00    0.868E+00
RMM:   3    -0.641877130736E+03    0.31245E+00   -0.53319E-01 13567   0.231E+00    0.351E+00
RMM:   4    -0.641855815632E+03    0.21315E-01   -0.19200E-01 13413   0.110E+00    0.249E+00
RMM:   5    -0.641849967970E+03    0.58477E-02   -0.69002E-02 14112   0.684E-01    0.247E+00
RMM:   6    -0.641822799424E+03    0.27169E-01   -0.35432E-02 13827   0.455E-01    0.716E-01
RMM:   7    -0.641836268170E+03   -0.13469E-01   -0.33052E-02 14113   0.410E-01    0.210E+00
RMM:   8    -0.641822187634E+03    0.14081E-01   -0.17162E-02 13678   0.363E-01    0.846E-01
RMM:   9    -0.641826368755E+03   -0.41811E-02   -0.12917E-02 14104   0.274E-01    0.140E+00
RMM:  10    -0.641819297957E+03    0.70708E-02   -0.59931E-03 12910   0.209E-01    0.255E-01
RMM:  11    -0.641820383094E+03   -0.10851E-02   -0.45388E-03 13248   0.122E-01    0.587E-01
RMM:  12    -0.641819292368E+03    0.10907E-02   -0.22133E-03 12477   0.107E-01    0.154E-01
RMM:  13    -0.641819307499E+03   -0.15131E-04   -0.17284E-03 12588   0.613E-02    0.532E-02
RMM:  14    -0.641819354141E+03   -0.46642E-04   -0.68266E-04 11694   0.505E-02    0.431E-02
RMM:  15    -0.641819386146E+03   -0.32005E-04   -0.41704E-04 10925   0.308E-02    0.271E-02
RMM:  16    -0.641819405572E+03   -0.19426E-04   -0.25314E-04 10970   0.295E-02    0.136E-02
RMM:  17    -0.641819414075E+03   -0.85032E-05   -0.13910E-04 10200   0.226E-02    0.820E-03
RMM:  18    -0.641819421207E+03   -0.71319E-05   -0.95076E-05  9911   0.184E-02
   3 F= -.64181942E+03 E0= -.64173579E+03  d E =-.547252E+01
       N       E                     dE             d eps       ncg     rms          rms(c)
DAV:   1    -0.640375605361E+03    0.14438E+01   -0.31275E+02 10056   0.744E+01    0.987E+00
RMM:   2    -0.652575207739E+03   -0.12200E+02   -0.52928E+01 13575   0.234E+01    0.358E+01
RMM:   3    -0.644139063561E+03    0.84361E+01   -0.77043E+00 12874   0.100E+01    0.160E+01
RMM:   4    -0.643320012257E+03    0.81905E+00   -0.26452E+00 13995   0.392E+00    0.864E+00
RMM:   5    -0.643309145907E+03    0.10866E-01   -0.10322E+00 13649   0.307E+00    0.113E+01
RMM:   6    -0.642805568688E+03    0.50358E+00   -0.56503E-01 13700   0.222E+00    0.454E+00
RMM:   7    -0.642939613733E+03   -0.13405E+00   -0.47651E-01 13913   0.183E+00    0.796E+00
RMM:   8    -0.642706365762E+03    0.23325E+00   -0.25507E-01 13629   0.152E+00    0.266E+00
RMM:   9    -0.642702057297E+03    0.43085E-02   -0.15498E-01 14254   0.815E-01    0.251E+00
RMM:  10    -0.642682600372E+03    0.19457E-01   -0.76358E-02 14116   0.628E-01    0.117E+00
RMM:  11    -0.642679259023E+03    0.33413E-02   -0.49603E-02 13935   0.365E-01    0.310E-01
RMM:  12    -0.642681553673E+03   -0.22946E-02   -0.27148E-02 13938   0.255E-01    0.323E-01
RMM:  13    -0.642683976427E+03   -0.24228E-02   -0.15216E-02 13209   0.209E-01    0.642E-01
RMM:  14    -0.642683594669E+03    0.38176E-03   -0.10424E-02 13407   0.166E-01    0.143E-01
RMM:  15    -0.642684104252E+03   -0.50958E-03   -0.59868E-03 12909   0.120E-01    0.828E-02
RMM:  16    -0.642684430482E+03   -0.32623E-03   -0.37207E-03 12328   0.912E-02    0.350E-02
RMM:  17    -0.642684623321E+03   -0.19284E-03   -0.23813E-03 11643   0.691E-02    0.243E-02
RMM:  18    -0.642684749045E+03   -0.12572E-03   -0.15480E-03 11349   0.540E-02    0.144E-02
RMM:  19    -0.642684831523E+03   -0.82478E-04   -0.98799E-04 11201   0.432E-02    0.981E-03
RMM:  20    -0.642684886576E+03   -0.55053E-04   -0.65495E-04 11143   0.344E-02    0.565E-03
RMM:  21    -0.642684923090E+03   -0.36514E-04   -0.42685E-04 10929   0.284E-02    0.375E-03
RMM:  22    -0.642684946891E+03   -0.23801E-04   -0.27838E-04 10581   0.230E-02    0.241E-03
RMM:  23    -0.642684963019E+03   -0.16128E-04   -0.18833E-04 10135   0.201E-02    0.131E-03
RMM:  24    -0.642684973337E+03   -0.10318E-04   -0.12236E-04  9631   0.168E-02    0.128E-03
RMM:  25    -0.642684979503E+03   -0.61665E-05   -0.74952E-05  8984   0.149E-02
   4 F= -.64268498E+03 E0= -.64260620E+03  d E =-.865558E+00
       N       E                     dE             d eps       ncg     rms          rms(c)
DAV:   1    -0.642684323612E+03    0.64972E-03   -0.17804E-01 10560   0.178E+00    0.249E-01
RMM:   2    -0.642693488287E+03   -0.91647E-02   -0.29844E-02 13687   0.555E-01    0.117E+00
RMM:   3    -0.642687074122E+03    0.64142E-02   -0.49573E-03 12202   0.254E-01    0.525E-01
RMM:   4    -0.642686096528E+03    0.97759E-03   -0.15815E-03 12070   0.122E-01    0.222E-01
RMM:   5    -0.642686360327E+03   -0.26380E-03   -0.72771E-04 11799   0.774E-02    0.370E-01
RMM:   6    -0.642685743059E+03    0.61727E-03   -0.39663E-04 11073   0.677E-02    0.958E-02
RMM:   7    -0.642685937125E+03   -0.19407E-03   -0.31087E-04 11672   0.520E-02    0.254E-01
RMM:   8    -0.642685686611E+03    0.25051E-03   -0.17416E-04 10789   0.469E-02    0.578E-02
RMM:   9    -0.642685752097E+03   -0.65485E-04   -0.11492E-04 10301   0.324E-02    0.143E-01
RMM:  10    -0.642685673919E+03    0.78178E-04   -0.52619E-05  7845   0.266E-02    0.298E-02
RMM:  11    -0.642685677681E+03   -0.37622E-05   -0.40191E-05  7435   0.176E-02
   5 F= -.64268568E+03 E0= -.64260673E+03  d E =-.866256E+00
       N       E                     dE             d eps       ncg     rms          rms(c)
DAV:   1    -0.641706170142E+03    0.97950E+00   -0.17485E+02 11640   0.679E+01    0.123E+01
RMM:   2    -0.662291607495E+03   -0.20585E+02   -0.41077E+01 13915   0.195E+01    0.416E+01
RMM:   3    -0.643357919971E+03    0.18934E+02   -0.95626E+00 12050   0.118E+01    0.564E+00
RMM:   4    -0.644157665542E+03   -0.79975E+00   -0.23754E+00 14122   0.398E+00    0.152E+01
RMM:   5    -0.643062371640E+03    0.10953E+01   -0.71330E-01 13263   0.283E+00    0.327E+00
RMM:   6    -0.643266471747E+03   -0.20410E+00   -0.52536E-01 14086   0.165E+00    0.852E+00
RMM:   7    -0.642991772196E+03    0.27470E+00   -0.23979E-01 13495   0.160E+00    0.278E+00
RMM:   8    -0.643137089849E+03   -0.14532E+00   -0.22291E-01 13838   0.124E+00    0.669E+00
RMM:   9    -0.642964006467E+03    0.17308E+00   -0.12399E-01 13433   0.110E+00    0.127E+00
RMM:  10    -0.642983031280E+03   -0.19025E-01   -0.81095E-02 13955   0.623E-01    0.252E+00
RMM:  11    -0.642958390807E+03    0.24640E-01   -0.33010E-02 13550   0.489E-01    0.533E-01
RMM:  12    -0.642959915186E+03   -0.15244E-02   -0.27380E-02 13920   0.240E-01    0.297E-01
RMM:  13    -0.642961806988E+03   -0.18918E-02   -0.11633E-02 13369   0.188E-01    0.585E-01
RMM:  14    -0.642961688993E+03    0.11800E-03   -0.88059E-03 13297   0.149E-01    0.178E-01
RMM:  15    -0.642962351246E+03   -0.66225E-03   -0.52750E-03 13001   0.120E-01    0.118E-01
RMM:  16    -0.642962700460E+03   -0.34921E-03   -0.35605E-03 12649   0.962E-02    0.552E-02
RMM:  17    -0.642962856471E+03   -0.15601E-03   -0.21533E-03 11978   0.715E-02    0.348E-02
RMM:  18    -0.642962966408E+03   -0.10994E-03   -0.13495E-03 11511   0.551E-02    0.249E-02
RMM:  19    -0.642963036098E+03   -0.69690E-04   -0.85971E-04 11259   0.426E-02    0.174E-02
RMM:  20    -0.642963078682E+03   -0.42584E-04   -0.53305E-04 11228   0.348E-02    0.638E-03
RMM:  21    -0.642963109137E+03   -0.30456E-04   -0.35883E-04 11184   0.287E-02    0.455E-03
RMM:  22    -0.642963128799E+03   -0.19662E-04   -0.22938E-04 10870   0.228E-02    0.415E-03
RMM:  23    -0.642963140985E+03   -0.12186E-04   -0.14255E-04 10296   0.193E-02    0.331E-03
RMM:  24    -0.642963147829E+03   -0.68435E-05   -0.82916E-05  9565   0.166E-02
   6 F= -.64296315E+03 E0= -.64288374E+03  d E =-.277470E+00
       N       E                     dE             d eps       ncg     rms          rms(c)
DAV:   1    -0.642922567185E+03    0.40574E-01   -0.65229E+00 10896   0.136E+01    0.229E+00
RMM:   2    -0.643729026223E+03   -0.80646E+00   -0.19036E+00 12461   0.474E+00    0.104E+01
RMM:   3    -0.643107682707E+03    0.62134E+00   -0.41449E-01 12273   0.229E+00    0.540E+00
RMM:   4    -0.643001548740E+03    0.10613E+00   -0.99959E-02 13313   0.953E-01    0.157E+00
RMM:   5    -0.643002279437E+03   -0.73070E-03   -0.36405E-02 13639   0.487E-01    0.212E+00
RMM:   6    -0.642984505775E+03    0.17774E-01   -0.15173E-02 12963   0.400E-01    0.739E-01
RMM:   7    -0.642986443993E+03   -0.19382E-02   -0.13447E-02 13850   0.300E-01    0.125E+00
RMM:   8    -0.642981070984E+03    0.53730E-02   -0.72032E-03 13098   0.281E-01    0.573E-01
RMM:   9    -0.642980329632E+03    0.74135E-03   -0.54296E-03 14041   0.174E-01    0.374E-01
RMM:  10    -0.642980484515E+03   -0.15488E-03   -0.22129E-03 12493   0.138E-01    0.420E-01
RMM:  11    -0.642979745593E+03    0.73892E-03   -0.13154E-03 12050   0.828E-02    0.112E-01
RMM:  12    -0.642979847550E+03   -0.10196E-03   -0.90380E-04 11665   0.571E-02    0.152E-01
RMM:  13    -0.642979821966E+03    0.25584E-04   -0.41531E-04 11484   0.417E-02    0.441E-02
RMM:  14    -0.642979868030E+03   -0.46064E-04   -0.26894E-04 10889   0.296E-02    0.343E-02
RMM:  15    -0.642979907328E+03   -0.39298E-04   -0.19800E-04 11098   0.276E-02    0.139E-02
RMM:  16    -0.642979920179E+03   -0.12851E-04   -0.11780E-04 10220   0.232E-02    0.881E-03
RMM:  17    -0.642979927209E+03   -0.70302E-05   -0.77613E-05 10040   0.202E-02
   7 F= -.64297993E+03 E0= -.64290062E+03  d E =-.294250E+00
       N       E                     dE             d eps       ncg     rms          rms(c)
DAV:   1    -0.641478488658E+03    0.15014E+01   -0.79975E+01 10464   0.541E+01    0.527E+00
RMM:   2    -0.646463689192E+03   -0.49852E+01   -0.23592E+01 13701   0.142E+01    0.215E+01
RMM:   3    -0.643623668464E+03    0.28400E+01   -0.33063E+00 12725   0.601E+00    0.100E+01
RMM:   4    -0.643281179839E+03    0.34249E+00   -0.90232E-01 13753   0.235E+00    0.454E+00
RMM:   5    -0.643286807800E+03   -0.56280E-02   -0.28315E-01 14023   0.140E+00    0.565E+00
RMM:   6    -0.643165856198E+03    0.12095E+00   -0.13024E-01 13570   0.108E+00    0.224E+00
RMM:   7    -0.643152469019E+03    0.13387E-01   -0.10443E-01 14081   0.800E-01    0.228E+00
RMM:   8    -0.643157346765E+03   -0.48777E-02   -0.60105E-02 13723   0.724E-01    0.259E+00
RMM:   9    -0.643135813609E+03    0.21533E-01   -0.48646E-02 13817   0.586E-01    0.151E+00
RMM:  10    -0.643132279696E+03    0.35339E-02   -0.24954E-02 13690   0.406E-01    0.113E+00
RMM:  11    -0.643129353442E+03    0.29263E-02   -0.14781E-02 13655   0.262E-01    0.711E-01
RMM:  12    -0.643128083835E+03    0.12696E-02   -0.90553E-03 12817   0.177E-01    0.245E-01
RMM:  13    -0.643128408592E+03   -0.32476E-03   -0.50922E-03 13107   0.107E-01    0.120E-01
RMM:  14    -0.643128742953E+03   -0.33436E-03   -0.28743E-03 12639   0.857E-02    0.871E-02
RMM:  15    -0.643128970357E+03   -0.22740E-03   -0.18914E-03 12457   0.730E-02    0.377E-02
RMM:  16    -0.643129075349E+03   -0.10499E-03   -0.11939E-03 11765   0.579E-02    0.239E-02
RMM:  17    -0.643129141617E+03   -0.66268E-04   -0.80766E-04 11256   0.431E-02    0.148E-02
RMM:  18    -0.643129181407E+03   -0.39791E-04   -0.48699E-04 11166   0.333E-02    0.956E-03
RMM:  19    -0.643129208488E+03   -0.27081E-04   -0.32564E-04 11013   0.271E-02    0.600E-03
RMM:  20    -0.643129225129E+03   -0.16640E-04   -0.20264E-04 10691   0.215E-02    0.203E-03
RMM:  21    -0.643129235756E+03   -0.10627E-04   -0.12801E-04 10064   0.183E-02    0.146E-03
RMM:  22    -0.643129242152E+03   -0.63957E-05   -0.78621E-05  9462   0.158E-02
   8 F= -.64312924E+03 E0= -.64305134E+03  d E =-.149315E+00
       N       E                     dE             d eps       ncg     rms          rms(c)
DAV:   1    -0.643128213063E+03    0.10227E-02   -0.65827E-02 11376   0.153E+00    0.154E-01
RMM:   2    -0.643132501709E+03   -0.42886E-02   -0.17804E-02 13702   0.373E-01    0.695E-01
RMM:   3    -0.643129992089E+03    0.25096E-02   -0.23202E-03 11495   0.171E-01    0.368E-01
RMM:   4    -0.643129557877E+03    0.43421E-03   -0.67495E-04 11437   0.794E-02    0.141E-01
RMM:   5    -0.643129572920E+03   -0.15043E-04   -0.25208E-04 11103   0.449E-02    0.176E-01
RMM:   6    -0.643129439572E+03    0.13335E-03   -0.10786E-04  9863   0.363E-02    0.580E-02
RMM:   7    -0.643129455864E+03   -0.16291E-04   -0.77695E-05  9186   0.261E-02    0.103E-01
RMM:   8    -0.643129420977E+03    0.34886E-04   -0.38715E-05  6602   0.249E-02    0.494E-02
RMM:   9    -0.643129433533E+03   -0.12555E-04   -0.40063E-05  6316   0.235E-02    0.777E-02
RMM:  10    -0.643129410291E+03    0.23242E-04   -0.20611E-05  5448   0.214E-02    0.231E-02
RMM:  11    -0.643129410656E+03   -0.36533E-06   -0.11814E-05  5233   0.140E-02
   9 F= -.64312941E+03 E0= -.64305142E+03  d E =-.149483E+00
       N       E                     dE             d eps       ncg     rms          rms(c)
DAV:   1    -0.642087173613E+03    0.10422E+01   -0.39423E+01  9336   0.416E+01    0.243E+00
RMM:   2    -0.643644661623E+03   -0.15575E+01   -0.12268E+01 14414   0.820E+00    0.839E+00
RMM:   3    -0.643323778455E+03    0.32088E+00   -0.84844E-01 13508   0.297E+00    0.523E+00
RMM:   4    -0.643290122766E+03    0.33656E-01   -0.27007E-01 13685   0.139E+00    0.358E+00
RMM:   5    -0.643230673077E+03    0.59450E-01   -0.79957E-02 14020   0.760E-01    0.163E+00
RMM:   6    -0.643226786620E+03    0.38865E-02   -0.42104E-02 14203   0.443E-01    0.138E+00
RMM:   7    -0.643218436102E+03    0.83505E-02   -0.24662E-02 14238   0.358E-01    0.684E-01
RMM:   8    -0.643231755413E+03   -0.13319E-01   -0.17179E-02 13740   0.367E-01    0.204E+00
RMM:   9    -0.643215620763E+03    0.16135E-01   -0.13813E-02 13858   0.341E-01    0.406E-01
RMM:  10    -0.643217609669E+03   -0.19889E-02   -0.83796E-03 13606   0.197E-01    0.770E-01
RMM:  11    -0.643215235196E+03    0.23745E-02   -0.39916E-03 12990   0.158E-01    0.129E-01
RMM:  12    -0.643215702315E+03   -0.46712E-03   -0.30986E-03 12483   0.869E-02    0.271E-01
RMM:  13    -0.643215470223E+03    0.23209E-03   -0.12825E-03 12023   0.736E-02    0.726E-02
RMM:  14    -0.643215536638E+03   -0.66415E-04   -0.89017E-04 11661   0.455E-02    0.432E-02
RMM:  15    -0.643215570147E+03   -0.33509E-04   -0.45651E-04 11226   0.398E-02    0.252E-02
RMM:  16    -0.643215592006E+03   -0.21859E-04   -0.29760E-04 10851   0.314E-02    0.132E-02
RMM:  17    -0.643215605933E+03   -0.13927E-04   -0.19101E-04 10563   0.262E-02    0.650E-03
RMM:  18    -0.643215615738E+03   -0.98048E-05   -0.12106E-04 10088   0.206E-02    0.343E-03
RMM:  19    -0.643215621327E+03   -0.55893E-05   -0.68160E-05  9259   0.170E-02
  10 F= -.64321562E+03 E0= -.64313698E+03  d E =-.862107E-01
       N       E                     dE             d eps       ncg     rms          rms(c)
DAV:   1    -0.643007370948E+03    0.20824E+00   -0.69834E+00  9048   0.178E+01    0.106E+00
RMM:   2    -0.643315545056E+03   -0.30817E+00   -0.23561E+00 14398   0.363E+00    0.399E+00
RMM:   3    -0.643249583803E+03    0.65961E-01   -0.18641E-01 13410   0.133E+00    0.256E+00
RMM:   4    -0.643236266794E+03    0.13317E-01   -0.53394E-02 13522   0.617E-01    0.140E+00
RMM:   5    -0.643229094644E+03    0.71722E-02   -0.16813E-02 13979   0.331E-01    0.961E-01
RMM:   6    -0.643225948077E+03    0.31466E-02   -0.74119E-03 13139   0.205E-01    0.469E-01
RMM:   7    -0.643225510766E+03    0.43731E-03   -0.49434E-03 13929   0.156E-01    0.477E-01
RMM:   8    -0.643225790198E+03   -0.27943E-03   -0.27813E-03 12945   0.153E-01    0.567E-01
RMM:   9    -0.643225095668E+03    0.69453E-03   -0.30496E-03 13873   0.144E-01    0.420E-01
RMM:  10    -0.643224474404E+03    0.62126E-03   -0.14074E-03 12642   0.102E-01    0.181E-01
RMM:  11    -0.643224396855E+03    0.77549E-04   -0.96008E-04 12109   0.613E-02    0.101E-01
RMM:  12    -0.643224428790E+03   -0.31935E-04   -0.53453E-04 11572   0.477E-02    0.949E-02
RMM:  13    -0.643224410849E+03    0.17941E-04   -0.32017E-04 10813   0.300E-02    0.250E-02
RMM:  14    -0.643224420637E+03   -0.97886E-05   -0.15606E-04 10504   0.239E-02    0.173E-02
RMM:  15    -0.643224426323E+03   -0.56861E-05   -0.94784E-05  9926   0.210E-02
  11 F= -.64322443E+03 E0= -.64314572E+03  d E =-.950157E-01
       N       E                     dE             d eps       ncg     rms          rms(c)
DAV:   1    -0.642498679858E+03    0.72574E+00   -0.29383E+01 10152   0.363E+01    0.168E+00
RMM:   2    -0.643501140231E+03   -0.10025E+01   -0.83012E+00 14247   0.667E+00    0.668E+00
RMM:   3    -0.643338191005E+03    0.16295E+00   -0.53082E-01 13355   0.231E+00    0.387E+00
RMM:   4    -0.643311789763E+03    0.26401E-01   -0.17538E-01 13580   0.107E+00    0.222E+00
RMM:   5    -0.643302154658E+03    0.96351E-02   -0.49412E-02 14006   0.595E-01    0.210E+00
RMM:   6    -0.643283891334E+03    0.18263E-01   -0.20929E-02 13822   0.370E-01    0.585E-01
RMM:   7    -0.643284779268E+03   -0.88793E-03   -0.16270E-02 14064   0.277E-01    0.877E-01
RMM:   8    -0.643284518574E+03    0.26069E-03   -0.85418E-03 13473   0.257E-01    0.860E-01
RMM:   9    -0.643281555027E+03    0.29635E-02   -0.75264E-03 13997   0.213E-01    0.455E-01
RMM:  10    -0.643281350376E+03    0.20465E-03   -0.36334E-03 13112   0.140E-01    0.334E-01
RMM:  11    -0.643281284602E+03    0.65774E-04   -0.21442E-03 12380   0.896E-02    0.233E-01
RMM:  12    -0.643281167225E+03    0.11738E-03   -0.12174E-03 11759   0.715E-02    0.109E-01
RMM:  13    -0.643281181102E+03   -0.13877E-04   -0.73999E-04 11500   0.446E-02    0.360E-02
RMM:  14    -0.643281217223E+03   -0.36122E-04   -0.36038E-04 11031   0.346E-02    0.208E-02
RMM:  15    -0.643281238137E+03   -0.20914E-04   -0.21410E-04 10355   0.281E-02    0.110E-02
RMM:  16    -0.643281252962E+03   -0.14825E-04   -0.15582E-04 10586   0.243E-02    0.546E-03
RMM:  17    -0.643281259959E+03   -0.69966E-05   -0.86849E-05  9272   0.181E-02
  12 F= -.64328126E+03 E0= -.64320228E+03  d E =-.568336E-01
       N       E                     dE             d eps       ncg     rms          rms(c)
DAV:   1    -0.642855822112E+03    0.42543E+00   -0.16407E+01  9912   0.272E+01    0.125E+00
RMM:   2    -0.643418016541E+03   -0.56219E+00   -0.46967E+00 14253   0.493E+00    0.497E+00
RMM:   3    -0.643327725005E+03    0.90292E-01   -0.25724E-01 13325   0.173E+00    0.291E+00
RMM:   4    -0.643313540084E+03    0.14185E-01   -0.97280E-02 13576   0.808E-01    0.171E+00
RMM:   5    -0.643306316363E+03    0.72237E-02   -0.27769E-02 13944   0.450E-01    0.153E+00
RMM:   6    -0.643296569456E+03    0.97469E-02   -0.12234E-02 13504   0.279E-01    0.434E-01
RMM:   7    -0.643296804716E+03   -0.23526E-03   -0.95561E-03 14110   0.209E-01    0.608E-01
RMM:   8    -0.643296919216E+03   -0.11450E-03   -0.51496E-03 13384   0.194E-01    0.646E-01
RMM:   9    -0.643294902514E+03    0.20167E-02   -0.40698E-03 13948   0.158E-01    0.158E-01
RMM:  10    -0.643295485087E+03   -0.58257E-03   -0.22496E-03 12603   0.104E-01    0.362E-01
RMM:  11    -0.643295085007E+03    0.40008E-03   -0.11283E-03 12002   0.801E-02    0.161E-01
RMM:  12    -0.643295073464E+03    0.11543E-04   -0.82925E-04 11506   0.501E-02    0.921E-02
RMM:  13    -0.643295074389E+03   -0.92496E-06   -0.40296E-04 11181   0.355E-02    0.283E-02
RMM:  14    -0.643295095073E+03   -0.20684E-04   -0.19504E-04 10502   0.274E-02    0.147E-02
RMM:  15    -0.643295108622E+03   -0.13549E-04   -0.12453E-04  9990   0.235E-02    0.791E-03
RMM:  16    -0.643295116039E+03   -0.74176E-05   -0.84225E-05  9936   0.197E-02
  13 F= -.64329512E+03 E0= -.64321674E+03  d E =-.706897E-01
       N       E                     dE             d eps       ncg     rms          rms(c)
DAV:   1    -0.642646201364E+03    0.64891E+00   -0.23765E+01  9696   0.329E+01    0.206E+00
RMM:   2    -0.643677255344E+03   -0.10311E+01   -0.76844E+00 14262   0.619E+00    0.731E+00
RMM:   3    -0.643388146932E+03    0.28911E+00   -0.52849E-01 12160   0.249E+00    0.329E+00
RMM:   4    -0.643387429653E+03    0.71728E-03   -0.16389E-01 13860   0.102E+00    0.304E+00
RMM:   5    -0.643351205542E+03    0.36224E-01   -0.45596E-02 13502   0.600E-01    0.158E+00
RMM:   6    -0.643344183664E+03    0.70219E-02   -0.23202E-02 13608   0.354E-01    0.951E-01
RMM:   7    -0.643342421788E+03    0.17619E-02   -0.12518E-02 14145   0.265E-01    0.937E-01
RMM:   8    -0.643341176036E+03    0.12458E-02   -0.74847E-03 13184   0.255E-01    0.853E-01
RMM:   9    -0.643346984471E+03   -0.58084E-02   -0.94844E-03 13666   0.268E-01    0.148E+00
RMM:  10    -0.643337786813E+03    0.91977E-02   -0.55189E-03 12882   0.235E-01    0.220E-01
RMM:  11    -0.643337670544E+03    0.11627E-03   -0.31235E-03 13120   0.103E-01    0.193E-01
RMM:  12    -0.643337690137E+03   -0.19594E-04   -0.12771E-03 11983   0.781E-02    0.146E-01
RMM:  13    -0.643337688260E+03    0.18771E-05   -0.92627E-04 11437   0.450E-02    0.470E-02
RMM:  14    -0.643337720987E+03   -0.32727E-04   -0.40656E-04 11416   0.361E-02    0.327E-02
RMM:  15    -0.643337741780E+03   -0.20793E-04   -0.25504E-04 11096   0.306E-02    0.163E-02
RMM:  16    -0.643337751428E+03   -0.96480E-05   -0.14788E-04 10195   0.247E-02    0.843E-03
RMM:  17    -0.643337758818E+03   -0.73898E-05   -0.98640E-05 10175   0.214E-02
  14 F= -.64333776E+03 E0= -.64326063E+03  d E =-.426428E-01
       N       E                     dE             d eps       ncg     rms          rms(c)
DAV:   1    -0.642979165972E+03    0.35859E+00   -0.12655E+01  9672   0.242E+01    0.151E+00
RMM:   2    -0.643532787221E+03   -0.55362E+00   -0.41177E+00 14336   0.449E+00    0.531E+00
RMM:   3    -0.643375782456E+03    0.15700E+00   -0.27375E-01 12281   0.183E+00    0.247E+00
RMM:   4    -0.643374524541E+03    0.12579E-02   -0.91465E-02 13929   0.727E-01    0.219E+00
RMM:   5    -0.643356699646E+03    0.17825E-01   -0.24445E-02 13318   0.446E-01    0.127E+00
RMM:   6    -0.643351437019E+03    0.52626E-02   -0.12034E-02 13254   0.253E-01    0.633E-01
RMM:   7    -0.643351350169E+03    0.86850E-04   -0.64356E-03 14065   0.202E-01    0.787E-01
RMM:   8    -0.643349810168E+03    0.15400E-02   -0.38819E-03 13101   0.176E-01    0.541E-01
RMM:   9    -0.643351294713E+03   -0.14845E-02   -0.50926E-03 13721   0.199E-01    0.781E-01
RMM:  10    -0.643348354608E+03    0.29401E-02   -0.25498E-03 12541   0.157E-01    0.154E-01
RMM:  11    -0.643348275937E+03    0.78671E-04   -0.16243E-03 12483   0.789E-02    0.625E-02
RMM:  12    -0.643348440556E+03   -0.16462E-03   -0.71219E-04 11826   0.579E-02    0.177E-01
RMM:  13    -0.643348354585E+03    0.85971E-04   -0.48861E-04 11424   0.396E-02    0.378E-02
RMM:  14    -0.643348372446E+03   -0.17861E-04   -0.24406E-04 10595   0.263E-02    0.259E-02
RMM:  15    -0.643348382391E+03   -0.99453E-05   -0.14254E-04 10623   0.247E-02    0.115E-02
RMM:  16    -0.643348387462E+03   -0.50711E-05   -0.87113E-05  9958   0.197E-02
  15 F= -.64334839E+03 E0= -.64327257E+03  d E =-.532714E-01
       N       E                     dE             d eps       ncg     rms          rms(c)
DAV:   1    -0.642641626259E+03    0.70676E+00   -0.29952E+01 10848   0.351E+01    0.233E+00
RMM:   2    -0.644155889383E+03   -0.15143E+01   -0.90195E+00 14064   0.710E+00    0.108E+01
RMM:   3    -0.643495190965E+03    0.66070E+00   -0.82686E-01 12354   0.284E+00    0.503E+00
RMM:   4    -0.643408927727E+03    0.86263E-01   -0.24343E-01 13728   0.122E+00    0.193E+00
RMM:   5    -0.643396766782E+03    0.12161E-01   -0.68608E-02 14027   0.603E-01    0.169E+00
RMM:   6    -0.643387860707E+03    0.89061E-02   -0.23230E-02 13841   0.377E-01    0.901E-01
RMM:   7    -0.643387421995E+03    0.43871E-03   -0.15900E-02 14019   0.309E-01    0.101E+00
RMM:   8    -0.643386029800E+03    0.13922E-02   -0.10095E-02 13421   0.303E-01    0.890E-01
RMM:   9    -0.643386584041E+03   -0.55424E-03   -0.98574E-03 13670   0.277E-01    0.977E-01
RMM:  10    -0.643382166290E+03    0.44178E-02   -0.46167E-03 12822   0.202E-01    0.230E-01
RMM:  11    -0.643382278301E+03   -0.11201E-03   -0.30579E-03 12730   0.105E-01    0.239E-01
RMM:  12    -0.643382200891E+03    0.77410E-04   -0.14566E-03 12036   0.802E-02    0.118E-01
RMM:  13    -0.643382265868E+03   -0.64977E-04   -0.10141E-03 11895   0.484E-02    0.513E-02
RMM:  14    -0.643382333100E+03   -0.67232E-04   -0.46888E-04 11345   0.388E-02    0.300E-02
RMM:  15    -0.643382371045E+03   -0.37945E-04   -0.30710E-04 11129   0.330E-02    0.162E-02
RMM:  16    -0.643382389428E+03   -0.18382E-04   -0.19079E-04 10495   0.263E-02    0.930E-03
RMM:  17    -0.643382399757E+03   -0.10329E-04   -0.12644E-04 10407   0.223E-02    0.623E-03
RMM:  18    -0.643382404776E+03   -0.50196E-05   -0.66194E-05  9294   0.171E-02
  16 F= -.64338240E+03 E0= -.64330955E+03  d E =-.340173E-01
       N       E                     dE             d eps       ncg     rms          rms(c)
DAV:   1    -0.643372143850E+03    0.10256E-01   -0.35320E-01 10008   0.393E+00    0.247E-01
RMM:   2    -0.643388742375E+03   -0.16599E-01   -0.11753E-01 14350   0.765E-01    0.953E-01
RMM:   3    -0.643383861215E+03    0.48812E-02   -0.96020E-03 12056   0.307E-01    0.520E-01
RMM:   4    -0.643383232473E+03    0.62874E-03   -0.26798E-03 12212   0.133E-01    0.269E-01
RMM:   5    -0.643382876067E+03    0.35641E-03   -0.74515E-04 12217   0.735E-02    0.148E-01
RMM:   6    -0.643382850475E+03    0.25592E-04   -0.36833E-04 11406   0.441E-02    0.123E-01
RMM:   7    -0.643382785224E+03    0.65251E-04   -0.20571E-04 11893   0.387E-02    0.622E-02
RMM:   8    -0.643382861109E+03   -0.75885E-04   -0.17073E-04 11001   0.414E-02    0.140E-01
RMM:   9    -0.643382768346E+03    0.92763E-04   -0.13183E-04 11316   0.354E-02    0.452E-02
RMM:  10    -0.643382775037E+03   -0.66915E-05   -0.75628E-05 10254   0.237E-02
  17 F= -.64338278E+03 E0= -.64331025E+03  d E =-.343876E-01
       N       E                     dE             d eps       ncg     rms          rms(c)
DAV:   1    -0.643227367521E+03    0.15540E+00   -0.69261E+00  9936   0.158E+01    0.120E+00
RMM:   2    -0.643544177198E+03   -0.31681E+00   -0.20503E+00 14235   0.325E+00    0.468E+00
RMM:   3    -0.643421748371E+03    0.12243E+00   -0.16040E-01 12434   0.141E+00    0.224E+00
RMM:   4    -0.643411562319E+03    0.10186E-01   -0.56248E-02 13668   0.598E-01    0.136E+00
RMM:   5    -0.643405361024E+03    0.62013E-02   -0.15227E-02 13769   0.327E-01    0.101E+00
RMM:   6    -0.643401711767E+03    0.36493E-02   -0.75560E-03 13202   0.206E-01    0.471E-01
RMM:   7    -0.643401533598E+03    0.17817E-03   -0.47030E-03 13949   0.178E-01    0.534E-01
RMM:   8    -0.643400999081E+03    0.53452E-03   -0.30578E-03 13038   0.161E-01    0.448E-01
RMM:   9    -0.643401874066E+03   -0.87499E-03   -0.29535E-03 13607   0.146E-01    0.662E-01
RMM:  10    -0.643399985868E+03    0.18882E-02   -0.14310E-03 12410   0.114E-01    0.927E-02
RMM:  11    -0.643400019050E+03   -0.33183E-04   -0.99296E-04 12008   0.547E-02    0.894E-02
RMM:  12    -0.643400031771E+03   -0.12721E-04   -0.41498E-04 11374   0.435E-02    0.680E-02
RMM:  13    -0.643400036409E+03   -0.46374E-05   -0.31981E-04 10550   0.279E-02    0.243E-02
RMM:  14    -0.643400045827E+03   -0.94187E-05   -0.14698E-04 10524   0.231E-02    0.161E-02
RMM:  15    -0.643400050015E+03   -0.41881E-05   -0.89090E-05  9825   0.205E-02
  18 F= -.64340005E+03 E0= -.64332819E+03  d E =-.172750E-01
       N       E                     dE             d eps       ncg     rms          rms(c)
DAV:   1    -0.643357423006E+03    0.42623E-01   -0.15467E+00  9888   0.774E+00    0.584E-01
RMM:   2    -0.643435556825E+03   -0.78134E-01   -0.51235E-01 14319   0.165E+00    0.228E+00
RMM:   3    -0.643408190944E+03    0.27366E-01   -0.49535E-02 12493   0.684E-01    0.117E+00
RMM:   4    -0.643404853789E+03    0.33372E-02   -0.12820E-02 13305   0.286E-01    0.617E-01
RMM:   5    -0.643403398727E+03    0.14551E-02   -0.36072E-03 13494   0.156E-01    0.427E-01
RMM:   6    -0.643402814142E+03    0.58458E-03   -0.17355E-03 11972   0.985E-02    0.243E-01
RMM:   7    -0.643402725980E+03    0.88162E-04   -0.11200E-03 13205   0.873E-02    0.240E-01
RMM:   8    -0.643402617164E+03    0.10882E-03   -0.75081E-04 12235   0.845E-02    0.196E-01
RMM:   9    -0.643402404823E+03    0.21234E-03   -0.64752E-04 13189   0.619E-02    0.661E-02
RMM:  10    -0.643402463889E+03   -0.59066E-04   -0.29799E-04 11672   0.454E-02    0.126E-01
RMM:  11    -0.643402407776E+03    0.56113E-04   -0.17080E-04 10967   0.293E-02    0.229E-02
RMM:  12    -0.643402423303E+03   -0.15528E-04   -0.11443E-04 10078   0.219E-02    0.508E-02
RMM:  13    -0.643402415037E+03    0.82660E-05   -0.54933E-05  9224   0.181E-02
  19 F= -.64340242E+03 E0= -.64333087E+03  d E =-.196400E-01
       N       E                     dE             d eps       ncg     rms          rms(c)
DAV:   1    -0.643317218517E+03    0.85205E-01   -0.37064E+00 11376   0.123E+01    0.111E+00
RMM:   2    -0.643559432792E+03   -0.24221E+00   -0.11901E+00 13458   0.295E+00    0.463E+00
RMM:   3    -0.643431494770E+03    0.12794E+00   -0.17236E-01 12010   0.127E+00    0.211E+00
RMM:   4    -0.643417487895E+03    0.14007E-01   -0.39997E-02 13470   0.484E-01    0.909E-01
RMM:   5    -0.643415214664E+03    0.22732E-02   -0.10711E-02 13779   0.249E-01    0.860E-01
RMM:   6    -0.643412631315E+03    0.25833E-02   -0.37573E-03 12342   0.173E-01    0.410E-01
RMM:   7    -0.643411920668E+03    0.71065E-03   -0.28719E-03 13887   0.136E-01    0.321E-01
RMM:   8    -0.643412834780E+03   -0.91411E-03   -0.18004E-03 12784   0.128E-01    0.574E-01
RMM:   9    -0.643411419364E+03    0.14154E-02   -0.15248E-03 13342   0.111E-01    0.896E-02
RMM:  10    -0.643411521472E+03   -0.10211E-03   -0.72864E-04 12314   0.635E-02    0.168E-01
RMM:  11    -0.643411394116E+03    0.12736E-03   -0.32449E-04 11578   0.479E-02    0.360E-02
RMM:  12    -0.643411433459E+03   -0.39343E-04   -0.23696E-04 10772   0.252E-02    0.620E-02
RMM:  13    -0.643411429862E+03    0.35975E-05   -0.11142E-04 10486   0.227E-02    0.267E-02
RMM:  14    -0.643411441360E+03   -0.11499E-04   -0.67669E-05  9365   0.174E-02    0.165E-02
RMM:  15    -0.643411453359E+03   -0.11999E-04   -0.51742E-05  9453   0.174E-02    0.640E-03
RMM:  16    -0.643411456845E+03   -0.34855E-05   -0.28329E-05  7854   0.148E-02
  20 F= -.64341146E+03 E0= -.64334066E+03  d E =-.904181E-02
       N       E                     dE             d eps       ncg     rms          rms(c)
DAV:   1    -0.643398826253E+03    0.12627E-01   -0.58612E-01 11904   0.484E+00    0.436E-01
RMM:   2    -0.643435011871E+03   -0.36186E-01   -0.17431E-01 13487   0.111E+00    0.180E+00
RMM:   3    -0.643414961062E+03    0.20051E-01   -0.23043E-02 11796   0.493E-01    0.799E-01
RMM:   4    -0.643413083940E+03    0.18771E-02   -0.60351E-03 12964   0.190E-01    0.372E-01
RMM:   5    -0.643412693892E+03    0.39005E-03   -0.16441E-03 12925   0.102E-01    0.335E-01
RMM:   6    -0.643412306381E+03    0.38751E-03   -0.60691E-04 11041   0.725E-02    0.161E-01
RMM:   7    -0.643412193583E+03    0.11280E-03   -0.46737E-04 12889   0.552E-02    0.118E-01
RMM:   8    -0.643412327913E+03   -0.13433E-03   -0.27596E-04 11319   0.552E-02    0.215E-01
RMM:   9    -0.643412139934E+03    0.18798E-03   -0.24619E-04 12118   0.440E-02    0.359E-02
RMM:  10    -0.643412161162E+03   -0.21228E-04   -0.12162E-04 11280   0.286E-02    0.691E-02
RMM:  11    -0.643412140968E+03    0.20194E-04   -0.57191E-05  9476   0.212E-02    0.164E-02
RMM:  12    -0.643412147805E+03   -0.68374E-05   -0.36011E-05  7800   0.153E-02
  21 F= -.64341215E+03 E0= -.64334164E+03  d E =-.973277E-02
       N       E                     dE             d eps       ncg     rms          rms(c)
DAV:   1    -0.643331108635E+03    0.81032E-01   -0.36852E+00 11664   0.124E+01    0.110E+00
RMM:   2    -0.643565632519E+03   -0.23452E+00   -0.11163E+00 13592   0.275E+00    0.464E+00
RMM:   3    -0.643437717974E+03    0.12791E+00   -0.14536E-01 12197   0.123E+00    0.215E+00
RMM:   4    -0.643423872551E+03    0.13845E-01   -0.37440E-02 13513   0.483E-01    0.960E-01
RMM:   5    -0.643420545491E+03    0.33271E-02   -0.10566E-02 13870   0.252E-01    0.722E-01
RMM:   6    -0.643418890284E+03    0.16552E-02   -0.38908E-03 12728   0.171E-01    0.450E-01
RMM:   7    -0.643417988069E+03    0.90221E-03   -0.27612E-03 13874   0.140E-01    0.312E-01
RMM:   8    -0.643418753824E+03   -0.76575E-03   -0.17761E-03 12592   0.130E-01    0.536E-01
RMM:   9    -0.643417743394E+03    0.10104E-02   -0.14829E-03 13263   0.114E-01    0.242E-01
RMM:  10    -0.643417562246E+03    0.18115E-03   -0.72766E-04 11672   0.730E-02    0.146E-01
RMM:  11    -0.643417496674E+03    0.65572E-04   -0.39428E-04 11848   0.460E-02    0.923E-02
RMM:  12    -0.643417483194E+03    0.13479E-04   -0.24166E-04 11207   0.313E-02    0.449E-02
RMM:  13    -0.643417483627E+03   -0.43210E-06   -0.12540E-04 10255   0.209E-02    0.214E-02
RMM:  14    -0.643417487929E+03   -0.43027E-05   -0.74240E-05  9832   0.185E-02
  22 F= -.64341749E+03 E0= -.64334725E+03  d E =-.534012E-02
       N       E                     dE             d eps       ncg     rms          rms(c)
DAV:   1    -0.643417082030E+03    0.40160E-03   -0.17890E-02 11952   0.869E-01    0.779E-02
RMM:   2    -0.643418250091E+03   -0.11681E-02   -0.55934E-03 13538   0.195E-01    0.326E-01
RMM:   3    -0.643417618860E+03    0.63123E-03   -0.77110E-04  9793   0.894E-02    0.155E-01
RMM:   4    -0.643417546363E+03    0.72497E-04   -0.19919E-04 10186   0.397E-02    0.632E-02
RMM:   5    -0.643417533583E+03    0.12779E-04   -0.61385E-05  9272   0.219E-02    0.488E-02
RMM:   6    -0.643417527372E+03    0.62117E-05   -0.24806E-05  6414   0.175E-02
  23 F= -.64341753E+03 E0= -.64334730E+03  d E =-.537957E-02
       N       E                     dE             d eps       ncg     rms          rms(c)
DAV:   1    -0.643405366198E+03    0.12167E-01   -0.59608E-01  9504   0.465E+00    0.228E-01
RMM:   2    -0.643423917367E+03   -0.18551E-01   -0.15284E-01 14266   0.909E-01    0.972E-01
RMM:   3    -0.643420412531E+03    0.35048E-02   -0.98837E-03 13580   0.327E-01    0.369E-01
RMM:   4    -0.643420498989E+03   -0.86458E-04   -0.34893E-03 12843   0.153E-01    0.299E-01
RMM:   5    -0.643419971571E+03    0.52742E-03   -0.92412E-04 11925   0.897E-02    0.139E-01
RMM:   6    -0.643419978384E+03   -0.68129E-05   -0.57749E-04 11439   0.474E-02    0.126E-01
RMM:   7    -0.643419992270E+03   -0.13886E-04   -0.27434E-04 11724   0.426E-02    0.149E-01
RMM:   8    -0.643419912611E+03    0.79660E-04   -0.17505E-04 10971   0.415E-02    0.782E-02
RMM:   9    -0.643419938210E+03   -0.25599E-04   -0.16137E-04 11460   0.336E-02    0.115E-01
RMM:  10    -0.643419877829E+03    0.60381E-04   -0.69232E-05  9614   0.302E-02    0.245E-02
RMM:  11    -0.643419880744E+03   -0.29154E-05   -0.51743E-05  8645   0.165E-02
  24 F= -.64341988E+03 E0= -.64334983E+03  d E =-.235337E-02
       N       E                     dE             d eps       ncg     rms          rms(c)
DAV:   1    -0.643411029536E+03    0.88483E-02   -0.39173E-01  9384   0.377E+00    0.184E-01
RMM:   2    -0.643422691089E+03   -0.11662E-01   -0.10193E-01 14264   0.737E-01    0.659E-01
RMM:   3    -0.643421087197E+03    0.16039E-02   -0.63302E-03 13466   0.249E-01    0.332E-01
RMM:   4    -0.643421092445E+03   -0.52480E-05   -0.22527E-03 12428   0.123E-01    0.256E-01
RMM:   5    -0.643420736954E+03    0.35549E-03   -0.62088E-04 11576   0.732E-02    0.128E-01
RMM:   6    -0.643420723037E+03    0.13916E-04   -0.41762E-04 11266   0.395E-02    0.909E-02
RMM:   7    -0.643420734073E+03   -0.11036E-04   -0.20362E-04 11382   0.357E-02    0.116E-01
RMM:   8    -0.643420695720E+03    0.38353E-04   -0.11652E-04 10708   0.343E-02    0.710E-02
RMM:   9    -0.643420703352E+03   -0.76327E-05   -0.11110E-04 10942   0.278E-02    0.820E-02
RMM:  10    -0.643420672975E+03    0.30377E-04   -0.51249E-05  9049   0.246E-02    0.196E-02
RMM:  11    -0.643420679642E+03   -0.66668E-05   -0.41216E-05  8106   0.154E-02
  25 F= -.64342068E+03 E0= -.64335071E+03  d E =-.315227E-02
       N       E                     dE             d eps       ncg     rms          rms(c)
DAV:   1    -0.643419951078E+03    0.72190E-03   -0.31026E-02 10008   0.106E+00    0.532E-02
RMM:   2    -0.643420916521E+03   -0.96544E-03   -0.81592E-03 14062   0.208E-01    0.203E-01
RMM:   3    -0.643420747203E+03    0.16932E-03   -0.53803E-04 11850   0.783E-02    0.891E-02
RMM:   4    -0.643420755129E+03   -0.79257E-05   -0.21083E-04 11042   0.396E-02    0.752E-02
RMM:   5    -0.643420729214E+03    0.25915E-04   -0.64135E-05  9253   0.251E-02    0.434E-02
RMM:   6    -0.643420725712E+03    0.35016E-05   -0.42629E-05  7888   0.168E-02
  26 F= -.64342073E+03 E0= -.64335083E+03  d E =-.319834E-02
       N       E                     dE             d eps       ncg     rms          rms(c)
DAV:   1    -0.643399311254E+03    0.21418E-01   -0.87430E-01  9408   0.589E+00    0.335E-01
RMM:   2    -0.643431629385E+03   -0.32318E-01   -0.25488E-01 14285   0.114E+00    0.122E+00
RMM:   3    -0.643424192011E+03    0.74374E-02   -0.16889E-02 13188   0.444E-01    0.643E-01
RMM:   4    -0.643423602115E+03    0.58990E-03   -0.59355E-03 12896   0.198E-01    0.437E-01
RMM:   5    -0.643423091888E+03    0.51023E-03   -0.17616E-03 12494   0.119E-01    0.366E-01
RMM:   6    -0.643422576619E+03    0.51527E-03   -0.81593E-04 11550   0.755E-02    0.123E-01
RMM:   7    -0.643422661521E+03   -0.84902E-04   -0.60426E-04 12602   0.536E-02    0.209E-01
RMM:   8    -0.643422529729E+03    0.13179E-03   -0.31930E-04 11424   0.582E-02    0.119E-01
RMM:   9    -0.643422486171E+03    0.43557E-04   -0.33224E-04 12732   0.424E-02    0.802E-02
RMM:  10    -0.643422472266E+03    0.13905E-04   -0.13763E-04 11012   0.372E-02    0.508E-02
RMM:  11    -0.643422471424E+03    0.84207E-06   -0.89895E-05  9922   0.196E-02
  27 F= -.64342247E+03 E0= -.64335275E+03  d E =-.174571E-02
       N       E                     dE             d eps       ncg     rms          rms(c)
DAV:   1    -0.643416261122E+03    0.62111E-02   -0.26535E-01  9720   0.322E+00    0.182E-01
RMM:   2    -0.643425280059E+03   -0.90189E-02   -0.71995E-02 14051   0.615E-01    0.639E-01
RMM:   3    -0.643423226790E+03    0.20533E-02   -0.53033E-03 12887   0.270E-01    0.331E-01
RMM:   4    -0.643423142072E+03    0.84718E-04   -0.18563E-03 12216   0.120E-01    0.242E-01
RMM:   5    -0.643422867267E+03    0.27480E-03   -0.60662E-04 11964   0.672E-02    0.112E-01
RMM:   6    -0.643422862028E+03    0.52386E-05   -0.33753E-04 11193   0.396E-02    0.933E-02
RMM:   7    -0.643422855409E+03    0.66187E-05   -0.17142E-04 11159   0.319E-02    0.994E-02
RMM:   8    -0.643422839341E+03    0.16068E-04   -0.92686E-05 10468   0.308E-02    0.757E-02
RMM:   9    -0.643422819770E+03    0.19571E-04   -0.10027E-04 10776   0.233E-02    0.347E-02
RMM:  10    -0.643422820706E+03   -0.93596E-06   -0.41929E-05  8660   0.206E-02
  28 F= -.64342282E+03 E0= -.64335324E+03  d E =-.209499E-02
       N       E                     dE             d eps       ncg     rms          rms(c)
DAV:   1    -0.643405315643E+03    0.17504E-01   -0.10475E+00 12168   0.640E+00    0.707E-01
RMM:   2    -0.643492742902E+03   -0.87427E-01   -0.29693E-01 13045   0.152E+00    0.318E+00
RMM:   3    -0.643434501207E+03    0.58242E-01   -0.48118E-02 11879   0.804E-01    0.155E+00
RMM:   4    -0.643425924146E+03    0.85771E-02   -0.12668E-02 12822   0.319E-01    0.512E-01
RMM:   5    -0.643425006618E+03    0.91753E-03   -0.42923E-03 13792   0.160E-01    0.457E-01
RMM:   6    -0.643424305214E+03    0.70140E-03   -0.14141E-03 12115   0.112E-01    0.282E-01
RMM:   7    -0.643424048028E+03    0.25719E-03   -0.11614E-03 13427   0.994E-02    0.253E-01
RMM:   8    -0.643423999803E+03    0.48225E-04   -0.66858E-04 12186   0.833E-02    0.244E-01
RMM:   9    -0.643423993645E+03    0.61584E-05   -0.59952E-04 12486   0.714E-02    0.237E-01
RMM:  10    -0.643423740644E+03    0.25300E-03   -0.28059E-04 10956   0.557E-02    0.653E-02
RMM:  11    -0.643423724910E+03    0.15734E-04   -0.17126E-04 11223   0.284E-02    0.439E-02
RMM:  12    -0.643423725075E+03   -0.16481E-06   -0.85971E-05  9934   0.213E-02
  29 F= -.64342373E+03 E0= -.64335418E+03  d E =-.904369E-03
       N       E                     dE             d eps       ncg     rms          rms(c)
DAV:   1    -0.643423075114E+03    0.64980E-03   -0.39455E-02 12432   0.125E+00    0.135E-01
RMM:   2    -0.643426271928E+03   -0.31968E-02   -0.11448E-02 12834   0.299E-01    0.614E-01
RMM:   3    -0.643424226552E+03    0.20454E-02   -0.17846E-03 10875   0.152E-01    0.313E-01
RMM:   4    -0.643423869190E+03    0.35736E-03   -0.47565E-04 10718   0.702E-02    0.993E-02
RMM:   5    -0.643423838987E+03    0.30203E-04   -0.17221E-04 10860   0.362E-02    0.985E-02
RMM:   6    -0.643423801955E+03    0.37031E-04   -0.52536E-05  7680   0.272E-02    0.539E-02
RMM:   7    -0.643423783994E+03    0.17961E-04   -0.42606E-05  6641   0.230E-02    0.388E-02
RMM:   8    -0.643423795399E+03   -0.11404E-04   -0.24675E-05  5467   0.245E-02    0.665E-02
RMM:   9    -0.643423781993E+03    0.13405E-04   -0.24019E-05  5467   0.206E-02    0.358E-02
RMM:  10    -0.643423778014E+03    0.39797E-05   -0.10862E-05  5207   0.165E-02
  30 F= -.64342378E+03 E0= -.64335423E+03  d E =-.957308E-03
       N       E                     dE             d eps       ncg     rms          rms(c)
DAV:   1    -0.643406642380E+03    0.17140E-01   -0.61482E-01  9120   0.505E+00    0.222E-01
RMM:   2    -0.643426046089E+03   -0.19404E-01   -0.18052E-01 14144   0.981E-01    0.697E-01
RMM:   3    -0.643425327404E+03    0.71869E-03   -0.13605E-02 13351   0.327E-01    0.438E-01
RMM:   4    -0.643425357007E+03   -0.29603E-04   -0.30251E-03 12491   0.153E-01    0.342E-01
RMM:   5    -0.643424891507E+03    0.46550E-03   -0.93484E-04 11602   0.889E-02    0.229E-01
RMM:   6    -0.643424713824E+03    0.17768E-03   -0.52859E-04 11397   0.491E-02    0.793E-02
RMM:   7    -0.643424759918E+03   -0.46094E-04   -0.26213E-04 11615   0.407E-02    0.134E-01
RMM:   8    -0.643424676956E+03    0.82962E-04   -0.16949E-04 10976   0.402E-02    0.611E-02
RMM:   9    -0.643424673468E+03    0.34878E-05   -0.13436E-04 11353   0.286E-02    0.671E-02
RMM:  10    -0.643424661239E+03    0.12230E-04   -0.54938E-05  9591   0.248E-02    0.329E-02
RMM:  11    -0.643424659106E+03    0.21330E-05   -0.34389E-05  8201   0.154E-02
  31 F= -.64342466E+03 E0= -.64335525E+03  d E =-.881092E-03
       N       E                     dE             d eps       ncg     rms          rms(c)
DAV:   1    -0.643408698363E+03    0.15963E-01   -0.58956E-01  9264   0.491E+00    0.215E-01
RMM:   2    -0.643426614991E+03   -0.17917E-01   -0.16544E-01 14136   0.931E-01    0.701E-01
RMM:   3    -0.643425548615E+03    0.10664E-02   -0.11150E-02 13452   0.322E-01    0.416E-01
RMM:   4    -0.643425633266E+03   -0.84650E-04   -0.30433E-03 12589   0.150E-01    0.337E-01
RMM:   5    -0.643425208133E+03    0.42513E-03   -0.97854E-04 11677   0.882E-02    0.231E-01
RMM:   6    -0.643425023478E+03    0.18466E-03   -0.54406E-04 11407   0.500E-02    0.762E-02
RMM:   7    -0.643425088546E+03   -0.65068E-04   -0.27890E-04 11539   0.411E-02    0.143E-01
RMM:   8    -0.643424994105E+03    0.94441E-04   -0.18463E-04 11158   0.411E-02    0.594E-02
RMM:   9    -0.643425013478E+03   -0.19374E-04   -0.14316E-04 11272   0.295E-02    0.923E-02
RMM:  10    -0.643424978400E+03    0.35078E-04   -0.63987E-05  9960   0.267E-02    0.225E-02
RMM:  11    -0.643424981177E+03   -0.27776E-05   -0.42534E-05  8415   0.154E-02
  32 F= -.64342498E+03 E0= -.64335572E+03  d E =-.120316E-02
       N       E                     dE             d eps       ncg     rms          rms(c)
DAV:   1    -0.643415266114E+03    0.97123E-02   -0.44701E-01 10704   0.410E+00    0.311E-01
RMM:   2    -0.643435245815E+03   -0.19980E-01   -0.12832E-01 13887   0.847E-01    0.116E+00
RMM:   3    -0.643427129652E+03    0.81162E-02   -0.11546E-02 11931   0.358E-01    0.544E-01
RMM:   4    -0.643426544958E+03    0.58469E-03   -0.34620E-03 12546   0.146E-01    0.345E-01
RMM:   5    -0.643426006603E+03    0.53835E-03   -0.96110E-04 12351   0.814E-02    0.182E-01
RMM:   6    -0.643425970748E+03    0.35855E-04   -0.45178E-04 11339   0.509E-02    0.162E-01
RMM:   7    -0.643425860338E+03    0.11041E-03   -0.24661E-04 12111   0.451E-02    0.908E-02
RMM:   8    -0.643425923052E+03   -0.62714E-04   -0.18881E-04 10533   0.450E-02    0.147E-01
RMM:   9    -0.643425852148E+03    0.70904E-04   -0.17314E-04 11326   0.390E-02    0.904E-02
RMM:  10    -0.643425827626E+03    0.24523E-04   -0.79450E-05  9628   0.303E-02    0.509E-02
RMM:  11    -0.643425817916E+03    0.97093E-05   -0.48018E-05  8141   0.187E-02
  33 F= -.64342582E+03 E0= -.64335680E+03  d E =-.836739E-03
       N       E                     dE             d eps       ncg     rms          rms(c)
DAV:   1    -0.643422955773E+03    0.28719E-02   -0.12546E-01 10944   0.217E+00    0.166E-01
RMM:   2    -0.643428811730E+03   -0.58560E-02   -0.36066E-02 13881   0.447E-01    0.645E-01
RMM:   3    -0.643426321923E+03    0.24898E-02   -0.32734E-03 11288   0.191E-01    0.294E-01
RMM:   4    -0.643426126702E+03    0.19522E-03   -0.10113E-03 11528   0.851E-02    0.176E-01
RMM:   5    -0.643426006678E+03    0.12002E-03   -0.29535E-04 11474   0.456E-02    0.113E-01
RMM:   6    -0.643425973354E+03    0.33324E-04   -0.13599E-04 10078   0.307E-02    0.726E-02
RMM:   7    -0.643425972741E+03    0.61263E-06   -0.77718E-05  9033   0.261E-02
  34 F= -.64342597E+03 E0= -.64335706E+03  d E =-.991564E-03
       N       E                     dE             d eps       ncg     rms          rms(c)
DAV:   1    -0.643417181396E+03    0.87920E-02   -0.32036E-01  9120   0.342E+00    0.266E-01
RMM:   2    -0.643436043232E+03   -0.18862E-01   -0.10796E-01 14187   0.753E-01    0.125E+00
RMM:   3    -0.643428672010E+03    0.73712E-02   -0.11954E-02 11522   0.318E-01    0.648E-01
RMM:   4    -0.643427227465E+03    0.14445E-02   -0.26784E-03 11529   0.139E-01    0.225E-01
RMM:   5    -0.643427050055E+03    0.17741E-03   -0.82548E-04 12026   0.670E-02    0.189E-01
RMM:   6    -0.643426933916E+03    0.11614E-03   -0.28129E-04 11034   0.451E-02    0.976E-02
RMM:   7    -0.643426890371E+03    0.43545E-04   -0.16218E-04 10990   0.314E-02    0.747E-02
RMM:   8    -0.643426950369E+03   -0.59998E-04   -0.11804E-04  9304   0.363E-02    0.142E-01
RMM:   9    -0.643426859866E+03    0.90503E-04   -0.13844E-04 10464   0.341E-02    0.382E-02
RMM:  10    -0.643426871258E+03   -0.11393E-04   -0.59589E-05  7751   0.268E-02    0.628E-02
RMM:  11    -0.643426852787E+03    0.18471E-04   -0.28693E-05  5912   0.198E-02    0.166E-02
RMM:  12    -0.643426854330E+03   -0.15426E-05   -0.21704E-05  5760   0.152E-02
  35 F= -.64342685E+03 E0= -.64335807E+03  d E =-.881588E-03
       N       E                     dE             d eps       ncg     rms          rms(c)
DAV:   1    -0.643422722901E+03    0.41299E-02   -0.16078E-01  9336   0.243E+00    0.201E-01
RMM:   2    -0.643433387709E+03   -0.10665E-01   -0.53390E-02 14040   0.522E-01    0.103E+00
RMM:   3    -0.643428394507E+03    0.49932E-02   -0.56065E-03 10891   0.231E-01    0.502E-01
RMM:   4    -0.643427439947E+03    0.95456E-03   -0.14286E-03 10864   0.109E-01    0.149E-01
RMM:   5    -0.643427391107E+03    0.48841E-04   -0.46091E-04 11607   0.495E-02    0.146E-01
RMM:   6    -0.643427307456E+03    0.83650E-04   -0.14900E-04 10007   0.359E-02    0.670E-02
RMM:   7    -0.643427286272E+03    0.21185E-04   -0.92380E-05  9373   0.260E-02    0.470E-02
RMM:   8    -0.643427308279E+03   -0.22007E-04   -0.58243E-05  7338   0.263E-02    0.843E-02
RMM:   9    -0.643427281693E+03    0.26585E-04   -0.65133E-05  7768   0.259E-02    0.494E-02
RMM:  10    -0.643427273806E+03    0.78868E-05   -0.28089E-05  6155   0.195E-02
  36 F= -.64342727E+03 E0= -.64335854E+03  d E =-.130107E-02
       N       E                     dE             d eps       ncg     rms          rms(c)
DAV:   1    -0.643410396399E+03    0.16885E-01   -0.65329E-01  9360   0.486E+00    0.397E-01
RMM:   2    -0.643450870613E+03   -0.40474E-01   -0.20433E-01 14028   0.101E+00    0.198E+00
RMM:   3    -0.643431813375E+03    0.19057E-01   -0.19502E-02 11635   0.453E-01    0.979E-01
RMM:   4    -0.643428262947E+03    0.35504E-02   -0.55399E-03 11990   0.199E-01    0.302E-01
RMM:   5    -0.643428072987E+03    0.18996E-03   -0.17278E-03 12444   0.957E-02    0.304E-01
RMM:   6    -0.643427706500E+03    0.36649E-03   -0.57609E-04 11011   0.643E-02    0.131E-01
RMM:   7    -0.643427616491E+03    0.90009E-04   -0.37112E-04 12410   0.480E-02    0.906E-02
RMM:   8    -0.643427748075E+03   -0.13158E-03   -0.23989E-04 10646   0.513E-02    0.195E-01
RMM:   9    -0.643427603472E+03    0.14460E-03   -0.24142E-04 11696   0.429E-02    0.930E-02
RMM:  10    -0.643427574254E+03    0.29217E-04   -0.11294E-04 10370   0.301E-02    0.437E-02
RMM:  11    -0.643427570287E+03    0.39668E-05   -0.58772E-05  8526   0.189E-02
  37 F= -.64342757E+03 E0= -.64335900E+03  d E =-.159755E-02
       N       E                     dE             d eps       ncg     rms          rms(c)
DAV:   1    -0.643424780328E+03    0.27939E-02   -0.12483E-01 10368   0.207E+00    0.882E-02
RMM:   2    -0.643428742717E+03   -0.39624E-02   -0.33064E-02 13360   0.370E-01    0.426E-01
RMM:   3    -0.643428041429E+03    0.70129E-03   -0.21597E-03 11153   0.114E-01    0.139E-01
RMM:   4    -0.643428058261E+03   -0.16832E-04   -0.47020E-04 10244   0.559E-02    0.122E-01
RMM:   5    -0.643428013024E+03    0.45237E-04   -0.11941E-04  8777   0.324E-02    0.977E-02
RMM:   6    -0.643427975091E+03    0.37933E-04   -0.58772E-05  7318   0.214E-02    0.277E-02
RMM:   7    -0.643427988177E+03   -0.13085E-04   -0.41462E-05  6975   0.183E-02    0.624E-02
RMM:   8    -0.643427973316E+03    0.14861E-04   -0.23164E-05  5779   0.192E-02    0.232E-02
RMM:   9    -0.643427972475E+03    0.84127E-06   -0.21310E-05  5810   0.138E-02
  38 F= -.64342797E+03 E0= -.64335953E+03  d E =-.402187E-03
       N       E                     dE             d eps       ncg     rms          rms(c)
DAV:   1    -0.643400360308E+03    0.27613E-01   -0.11236E+00  9768   0.617E+00    0.263E-01
RMM:   2    -0.643435612218E+03   -0.35252E-01   -0.29738E-01 13558   0.110E+00    0.125E+00
RMM:   3    -0.643429638996E+03    0.59732E-02   -0.19527E-02 12784   0.324E-01    0.393E-01
RMM:   4    -0.643429981110E+03   -0.34211E-03   -0.41024E-03 11657   0.155E-01    0.392E-01
RMM:   5    -0.643429352314E+03    0.62880E-03   -0.93444E-04 10479   0.931E-02    0.254E-01
RMM:   6    -0.643429101210E+03    0.25110E-03   -0.54841E-04 10789   0.497E-02    0.850E-02
RMM:   7    -0.643429199759E+03   -0.98549E-04   -0.29271E-04 10733   0.391E-02    0.166E-01
RMM:   8    -0.643429073874E+03    0.12589E-03   -0.20243E-04 10686   0.396E-02    0.626E-02
RMM:   9    -0.643429117319E+03   -0.43446E-04   -0.13222E-04  9848   0.298E-02    0.117E-01
RMM:  10    -0.643429057293E+03    0.60026E-04   -0.70654E-05  8652   0.250E-02    0.167E-02
RMM:  11    -0.643429057287E+03    0.62137E-08   -0.37217E-05  6886   0.147E-02
  39 F= -.64342906E+03 E0= -.64336094E+03  d E =-.148700E-02
       N       E                     dE             d eps       ncg     rms          rms(c)
DAV:   1    -0.643314945583E+03    0.11411E+00   -0.45157E+00  9696   0.125E+01    0.514E-01
RMM:   2    -0.643447236037E+03   -0.13229E+00   -0.11658E+00 13634   0.221E+00    0.214E+00
RMM:   3    -0.643432592497E+03    0.14644E-01   -0.87778E-02 13370   0.699E-01    0.814E-01
RMM:   4    -0.643434605825E+03   -0.20133E-02   -0.17405E-02 12381   0.318E-01    0.852E-01
RMM:   5    -0.643431852709E+03    0.27531E-02   -0.46148E-03 11390   0.192E-01    0.522E-01
RMM:   6    -0.643430728445E+03    0.11243E-02   -0.22850E-03 11427   0.980E-02    0.157E-01
RMM:   7    -0.643431204831E+03   -0.47639E-03   -0.12802E-03 11856   0.772E-02    0.364E-01
RMM:   8    -0.643430632631E+03    0.57220E-03   -0.75916E-04 11508   0.785E-02    0.133E-01
RMM:   9    -0.643430769880E+03   -0.13725E-03   -0.56276E-04 11429   0.555E-02    0.211E-01
RMM:  10    -0.643430573769E+03    0.19611E-03   -0.29437E-04 11188   0.465E-02    0.378E-02
RMM:  11    -0.643430619106E+03   -0.45338E-04   -0.19729E-04  9840   0.284E-02    0.981E-02
RMM:  12    -0.643430578418E+03    0.40688E-04   -0.83918E-05  8650   0.246E-02    0.161E-02
RMM:  13    -0.643430580348E+03   -0.19301E-05   -0.47390E-05  7566   0.146E-02
  40 F= -.64343058E+03 E0= -.64336319E+03  d E =-.301006E-02
       N       E                     dE             d eps       ncg     rms          rms(c)
DAV:   1    -0.643420130936E+03    0.10447E-01   -0.56693E-01 11448   0.441E+00    0.444E-01
RMM:   2    -0.643453598907E+03   -0.33468E-01   -0.16874E-01 13054   0.100E+00    0.169E+00
RMM:   3    -0.643434411037E+03    0.19188E-01   -0.20948E-02 11499   0.496E-01    0.642E-01
RMM:   4    -0.643433616050E+03    0.79499E-03   -0.58222E-03 12668   0.196E-01    0.425E-01
RMM:   5    -0.643432841461E+03    0.77459E-03   -0.16499E-03 12617   0.106E-01    0.264E-01
RMM:   6    -0.643432703195E+03    0.13827E-03   -0.58985E-04 11085   0.743E-02    0.217E-01
RMM:   7    -0.643432659802E+03    0.43392E-04   -0.46675E-04 12351   0.602E-02    0.230E-01
RMM:   8    -0.643432481407E+03    0.17840E-03   -0.28514E-04 10387   0.612E-02    0.130E-01
RMM:   9    -0.643432609355E+03   -0.12795E-03   -0.30208E-04 11452   0.508E-02    0.200E-01
RMM:  10    -0.643432416049E+03    0.19331E-03   -0.14859E-04  9811   0.445E-02    0.373E-02
RMM:  11    -0.643432411831E+03    0.42175E-05   -0.80787E-05 10196   0.202E-02
  41 F= -.64343241E+03 E0= -.64336529E+03  d E =-.183148E-02
       N       E                     dE             d eps       ncg     rms          rms(c)
DAV:   1    -0.643407078828E+03    0.25337E-01   -0.12242E+00 11448   0.648E+00    0.653E-01
RMM:   2    -0.643479668254E+03   -0.72589E-01   -0.36213E-01 12971   0.147E+00    0.249E+00
RMM:   3    -0.643437518588E+03    0.42150E-01   -0.44683E-02 11611   0.720E-01    0.939E-01
RMM:   4    -0.643435783772E+03    0.17348E-02   -0.12516E-02 12920   0.279E-01    0.617E-01
RMM:   5    -0.643434249870E+03    0.15339E-02   -0.34384E-03 13156   0.150E-01    0.412E-01
RMM:   6    -0.643433824888E+03    0.42498E-03   -0.11933E-03 11343   0.101E-01    0.299E-01
RMM:   7    -0.643433782131E+03    0.42757E-04   -0.99870E-04 13013   0.862E-02    0.332E-01
RMM:   8    -0.643433401818E+03    0.38031E-03   -0.58545E-04 11186   0.831E-02    0.185E-01
RMM:   9    -0.643433656121E+03   -0.25430E-03   -0.60782E-04 12124   0.720E-02    0.283E-01
RMM:  10    -0.643433270891E+03    0.38523E-03   -0.31048E-04 10640   0.617E-02    0.534E-02
RMM:  11    -0.643433260398E+03    0.10493E-04   -0.17308E-04 11210   0.274E-02    0.190E-02
RMM:  12    -0.643433271022E+03   -0.10625E-04   -0.72185E-05  9585   0.189E-02    0.188E-02
RMM:  13    -0.643433277515E+03   -0.64921E-05   -0.39827E-05  7635   0.160E-02
  42 F= -.64343328E+03 E0= -.64336657E+03  d E =-.269717E-02
       N       E                     dE             d eps       ncg     rms          rms(c)
DAV:   1    -0.643420551838E+03    0.12719E-01   -0.58046E-01  9864   0.446E+00    0.189E-01
RMM:   2    -0.643437866741E+03   -0.17315E-01   -0.14332E-01 13838   0.801E-01    0.899E-01
RMM:   3    -0.643434948375E+03    0.29184E-02   -0.98541E-03 12985   0.272E-01    0.309E-01
RMM:   4    -0.643435134683E+03   -0.18631E-03   -0.25950E-03 11843   0.128E-01    0.294E-01
RMM:   5    -0.643434847005E+03    0.28768E-03   -0.71566E-04 10942   0.763E-02    0.200E-01
RMM:   6    -0.643434675755E+03    0.17125E-03   -0.33019E-04 10827   0.428E-02    0.599E-02
RMM:   7    -0.643434738286E+03   -0.62530E-04   -0.19261E-04 10694   0.317E-02    0.131E-01
RMM:   8    -0.643434664623E+03    0.73663E-04   -0.12270E-04 10394   0.324E-02    0.523E-02
RMM:   9    -0.643434688648E+03   -0.24025E-04   -0.94314E-05  9616   0.255E-02    0.861E-02
RMM:  10    -0.643434654558E+03    0.34090E-04   -0.46546E-05  8084   0.216E-02    0.151E-02
RMM:  11    -0.643434664758E+03   -0.10200E-04   -0.37488E-05  7057   0.165E-02    0.452E-02
RMM:  12    -0.643434656073E+03    0.86853E-05   -0.18364E-05  5956   0.154E-02
  43 F= -.64343466E+03 E0= -.64336809E+03  d E =-.137856E-02
       N       E                     dE             d eps       ncg     rms          rms(c)
DAV:   1    -0.643314662722E+03    0.12000E+00   -0.53027E+00 10080   0.134E+01    0.556E-01
RMM:   2    -0.643460779633E+03   -0.14612E+00   -0.12415E+00 13807   0.232E+00    0.244E+00
RMM:   3    -0.643439304409E+03    0.21475E-01   -0.81988E-02 13450   0.796E-01    0.939E-01
RMM:   4    -0.643441038896E+03   -0.17345E-02   -0.22455E-02 12932   0.364E-01    0.905E-01
RMM:   5    -0.643438362782E+03    0.26761E-02   -0.61507E-03 12157   0.217E-01    0.600E-01
RMM:   6    -0.643436750692E+03    0.16121E-02   -0.27411E-03 11725   0.120E-01    0.164E-01
RMM:   7    -0.643437266468E+03   -0.51578E-03   -0.16700E-03 12324   0.850E-02    0.376E-01
RMM:   8    -0.643436677351E+03    0.58912E-03   -0.96043E-04 12458   0.876E-02    0.153E-01
RMM:   9    -0.643436864617E+03   -0.18727E-03   -0.80038E-04 12085   0.664E-02    0.248E-01
RMM:  10    -0.643436579169E+03    0.28545E-03   -0.38609E-04 11596   0.559E-02    0.438E-02
RMM:  11    -0.643436667092E+03   -0.87922E-04   -0.30547E-04 10816   0.336E-02    0.129E-01
RMM:  12    -0.643436595223E+03    0.71869E-04   -0.12629E-04 10057   0.284E-02    0.174E-02
RMM:  13    -0.643436598169E+03   -0.29461E-05   -0.70247E-05  8303   0.160E-02
  44 F= -.64343660E+03 E0= -.64337053E+03  d E =-.332065E-02
       N       E                     dE             d eps       ncg     rms          rms(c)
DAV:   1    -0.643435116569E+03    0.14787E-02   -0.40808E-01 12168   0.349E+00    0.555E-01
RMM:   2    -0.643482527934E+03   -0.47411E-01   -0.10635E-01 12093   0.990E-01    0.254E+00
RMM:   3    -0.643445495020E+03    0.37033E-01   -0.23139E-02 11220   0.580E-01    0.124E+00
RMM:   4    -0.643439452637E+03    0.60424E-02   -0.59850E-03 12148   0.238E-01    0.366E-01
RMM:   5    -0.643439352079E+03    0.10056E-03   -0.21351E-03 13048   0.118E-01    0.444E-01
RMM:   6    -0.643438550013E+03    0.80207E-03   -0.83062E-04 11343   0.936E-02    0.183E-01
RMM:   7    -0.643438435091E+03    0.11492E-03   -0.76055E-04 13173   0.743E-02    0.174E-01
RMM:   8    -0.643438387372E+03    0.47719E-04   -0.32318E-04 11071   0.614E-02    0.151E-01
RMM:   9    -0.643438372851E+03    0.14520E-04   -0.23357E-04 11257   0.444E-02    0.136E-01
RMM:  10    -0.643438293319E+03    0.79532E-04   -0.10955E-04 10136   0.354E-02    0.478E-02
RMM:  11    -0.643438285703E+03    0.76164E-05   -0.66593E-05  9397   0.190E-02
  45 F= -.64343829E+03 E0= -.64337223E+03  d E =-.168753E-02
       N       E                     dE             d eps       ncg     rms          rms(c)
DAV:   1    -0.643437869997E+03    0.42332E-03   -0.86249E-02 12384   0.162E+00    0.258E-01
RMM:   2    -0.643448196375E+03   -0.10326E-01   -0.22831E-02 11995   0.460E-01    0.119E+00
RMM:   3    -0.643440143556E+03    0.80528E-02   -0.50468E-03 10743   0.274E-01    0.583E-01
RMM:   4    -0.643438803730E+03    0.13398E-02   -0.13153E-03 10978   0.116E-01    0.164E-01
RMM:   5    -0.643438800642E+03    0.30878E-05   -0.46340E-04 11650   0.567E-02    0.207E-01
RMM:   6    -0.643438621930E+03    0.17871E-03   -0.17487E-04  9563   0.462E-02    0.796E-02
RMM:   7    -0.643438607602E+03    0.14327E-04   -0.17697E-04 11140   0.353E-02    0.868E-02
RMM:   8    -0.643438590541E+03    0.17062E-04   -0.71953E-05  8127   0.329E-02    0.638E-02
RMM:   9    -0.643438586502E+03    0.40382E-05   -0.58765E-05  8245   0.231E-02
  46 F= -.64343859E+03 E0= -.64337257E+03  d E =-.198833E-02
       N       E                     dE             d eps       ncg     rms          rms(c)
DAV:   1    -0.643435556424E+03    0.30341E-02   -0.34538E-01 12024   0.321E+00    0.514E-01
RMM:   2    -0.643476564527E+03   -0.41008E-01   -0.90304E-02 12039   0.914E-01    0.237E+00
RMM:   3    -0.643444464197E+03    0.32100E-01   -0.19922E-02 11126   0.538E-01    0.115E+00
RMM:   4    -0.643439219538E+03    0.52447E-02   -0.50608E-03 12053   0.220E-01    0.335E-01
RMM:   5    -0.643439143803E+03    0.75735E-04   -0.18177E-03 12858   0.109E-01    0.405E-01
RMM:   6    -0.643438472758E+03    0.67105E-03   -0.70067E-04 11125   0.853E-02    0.172E-01
RMM:   7    -0.643438500116E+03   -0.27358E-04   -0.63659E-04 12702   0.722E-02    0.221E-01
RMM:   8    -0.643438293046E+03    0.20707E-03   -0.31090E-04 10683   0.601E-02    0.101E-01
RMM:   9    -0.643438368697E+03   -0.75651E-04   -0.24362E-04 11317   0.446E-02    0.161E-01
RMM:  10    -0.643438253598E+03    0.11510E-03   -0.10982E-04  9984   0.349E-02    0.367E-02
RMM:  11    -0.643438251415E+03    0.21835E-05   -0.66923E-05  9204   0.182E-02
  47 F= -.64343825E+03 E0= -.64337224E+03  d E =-.165325E-02
       N       E                     dE             d eps       ncg     rms          rms(c)
DAV:   1    -0.643437088651E+03    0.11649E-02   -0.19961E-01 12120   0.244E+00    0.386E-01
RMM:   2    -0.643459715881E+03   -0.22627E-01   -0.52762E-02 12026   0.703E-01    0.177E+00
RMM:   3    -0.643442307633E+03    0.17408E-01   -0.11028E-02 11186   0.401E-01    0.887E-01
RMM:   4    -0.643439192614E+03    0.31150E-02   -0.30004E-03 11827   0.174E-01    0.256E-01
RMM:   5    -0.643439181594E+03    0.11020E-04   -0.10801E-03 12275   0.864E-02    0.329E-01
RMM:   6    -0.643438729062E+03    0.45253E-03   -0.42099E-04 10524   0.709E-02    0.129E-01
RMM:   7    -0.643438679754E+03    0.49308E-04   -0.40243E-04 12284   0.555E-02    0.130E-01
RMM:   8    -0.643438638471E+03    0.41283E-04   -0.16660E-04  9176   0.467E-02    0.101E-01
RMM:   9    -0.643438649795E+03   -0.11324E-04   -0.12201E-04  9250   0.330E-02    0.111E-01
RMM:  10    -0.643438599423E+03    0.50371E-04   -0.46142E-05  6199   0.260E-02    0.356E-02
RMM:  11    -0.643438595576E+03    0.38476E-05   -0.21004E-05  5702   0.187E-02
  48 F= -.64343860E+03 E0= -.64337258E+03  d E =-.199741E-02
       N       E                     dE             d eps       ncg     rms          rms(c)
DAV:   1    -0.643432071290E+03    0.65281E-02   -0.48360E-01  9648   0.361E+00    0.227E-01
RMM:   2    -0.643443693792E+03   -0.11623E-01   -0.89415E-02 14052   0.736E-01    0.765E-01
RMM:   3    -0.643440879074E+03    0.28147E-02   -0.66294E-03 12381   0.292E-01    0.442E-01
RMM:   4    -0.643440545418E+03    0.33366E-03   -0.23585E-03 12343   0.126E-01    0.295E-01
RMM:   5    -0.643440264031E+03    0.28139E-03   -0.73135E-04 11679   0.760E-02    0.221E-01
RMM:   6    -0.643440065244E+03    0.19879E-03   -0.34890E-04 10902   0.522E-02    0.881E-02
RMM:   7    -0.643440020688E+03    0.44556E-04   -0.22369E-04 11777   0.365E-02    0.640E-02
RMM:   8    -0.643440088455E+03   -0.67767E-04   -0.16575E-04 10622   0.401E-02    0.133E-01
RMM:   9    -0.643440011349E+03    0.77106E-04   -0.12957E-04 10978   0.340E-02    0.576E-02
RMM:  10    -0.643440007936E+03    0.34126E-05   -0.63022E-05  8881   0.232E-02
  49 F= -.64344001E+03 E0= -.64337418E+03  d E =-.141236E-02
       N       E                     dE             d eps       ncg     rms          rms(c)
DAV:   1    -0.643433737843E+03    0.62735E-02   -0.39297E-01  9552   0.326E+00    0.203E-01
RMM:   2    -0.643443148198E+03   -0.94104E-02   -0.74709E-02 14103   0.671E-01    0.647E-01
RMM:   3    -0.643441076312E+03    0.20719E-02   -0.56653E-03 12554   0.259E-01    0.394E-01
RMM:   4    -0.643440862133E+03    0.21418E-03   -0.20751E-03 12371   0.111E-01    0.272E-01
RMM:   5    -0.643440563804E+03    0.29833E-03   -0.58266E-04 11695   0.686E-02    0.167E-01
RMM:   6    -0.643440473491E+03    0.90314E-04   -0.34748E-04 11061   0.452E-02    0.898E-02
RMM:   7    -0.643440431337E+03    0.42154E-04   -0.18745E-04 11644   0.344E-02    0.581E-02
RMM:   8    -0.643440495458E+03   -0.64121E-04   -0.14465E-04 10662   0.364E-02    0.129E-01
RMM:   9    -0.643440431559E+03    0.63899E-04   -0.11151E-04 10690   0.318E-02    0.628E-02
RMM:  10    -0.643440423143E+03    0.84165E-05   -0.57502E-05  8560   0.229E-02
  50 F= -.64344042E+03 E0= -.64337477E+03  d E =-.182757E-02
       N       E                     dE             d eps       ncg     rms          rms(c)
DAV:   1    -0.643438869555E+03    0.15620E-02   -0.18326E-01  9384   0.203E+00    0.202E-01
RMM:   2    -0.643445391511E+03   -0.65220E-02   -0.33285E-02 13837   0.511E-01    0.753E-01
RMM:   3    -0.643441652744E+03    0.37388E-02   -0.39507E-03 11729   0.222E-01    0.315E-01
RMM:   4    -0.643441444017E+03    0.20873E-03   -0.13045E-03 11921   0.923E-02    0.206E-01
RMM:   5    -0.643441361429E+03    0.82589E-04   -0.42019E-04 11436   0.561E-02    0.192E-01
RMM:   6    -0.643441213565E+03    0.14786E-03   -0.18865E-04 10539   0.434E-02    0.766E-02
RMM:   7    -0.643441228144E+03   -0.14579E-04   -0.15333E-04 11020   0.349E-02    0.107E-01
RMM:   8    -0.643441179417E+03    0.48728E-04   -0.93065E-05  9703   0.340E-02    0.512E-02
RMM:   9    -0.643441202967E+03   -0.23550E-04   -0.83141E-05 10101   0.252E-02    0.853E-02
RMM:  10    -0.643441172970E+03    0.29997E-04   -0.32619E-05  6093   0.222E-02    0.221E-02
RMM:  11    -0.643441173234E+03   -0.26484E-06   -0.24052E-05  6005   0.179E-02
  51 F= -.64344117E+03 E0= -.64337560E+03  d E =-.750092E-03
       N       E                     dE             d eps       ncg     rms          rms(c)
DAV:   1    -0.643438732077E+03    0.24409E-02   -0.21593E-01  9408   0.221E+00    0.219E-01
RMM:   2    -0.643446486102E+03   -0.77540E-02   -0.39084E-02 13823   0.556E-01    0.826E-01
RMM:   3    -0.643442004810E+03    0.44813E-02   -0.47342E-03 11879   0.242E-01    0.340E-01
RMM:   4    -0.643441750772E+03    0.25404E-03   -0.15618E-03 12045   0.996E-02    0.219E-01
RMM:   5    -0.643441660727E+03    0.90046E-04   -0.50523E-04 11626   0.606E-02    0.209E-01
RMM:   6    -0.643441487959E+03    0.17277E-03   -0.22330E-04 10671   0.465E-02    0.843E-02
RMM:   7    -0.643441509467E+03   -0.21509E-04   -0.18232E-04 11265   0.377E-02    0.121E-01
RMM:   8    -0.643441447847E+03    0.61620E-04   -0.11408E-04 10063   0.374E-02    0.590E-02
RMM:   9    -0.643441488365E+03   -0.40518E-04   -0.10195E-04 10423   0.287E-02    0.108E-01
RMM:  10    -0.643441437939E+03    0.50426E-04   -0.43912E-05  6954   0.249E-02    0.213E-02
RMM:  11    -0.643441438937E+03   -0.99791E-06   -0.31303E-05  6581   0.179E-02
  52 F= -.64344144E+03 E0= -.64337598E+03  d E =-.101579E-02
       N       E                     dE             d eps       ncg     rms          rms(c)
DAV:   1    -0.643440589154E+03    0.84878E-03   -0.13912E-01  9696   0.175E+00    0.220E-01
RMM:   2    -0.643448093498E+03   -0.75043E-02   -0.26947E-02 13164   0.481E-01    0.911E-01
RMM:   3    -0.643442941226E+03    0.51523E-02   -0.41926E-03 11269   0.235E-01    0.445E-01
RMM:   4    -0.643442271167E+03    0.67006E-03   -0.13001E-03 11596   0.105E-01    0.176E-01
RMM:   5    -0.643442161288E+03    0.10988E-03   -0.41650E-04 11703   0.534E-02    0.152E-01
RMM:   6    -0.643442084301E+03    0.76986E-04   -0.15841E-04 10455   0.412E-02    0.877E-02
RMM:   7    -0.643442030807E+03    0.53494E-04   -0.14485E-04 11365   0.316E-02    0.375E-02
RMM:   8    -0.643442093249E+03   -0.62442E-04   -0.86880E-05  8762   0.345E-02    0.123E-01
RMM:   9    -0.643442027774E+03    0.65475E-04   -0.51599E-05  6776   0.256E-02    0.359E-02
RMM:  10    -0.643442027755E+03    0.19027E-07   -0.25921E-05  5887   0.219E-02
  53 F= -.64344203E+03 E0= -.64337656E+03  d E =-.588818E-03
       N       E                     dE             d eps       ncg     rms          rms(c)
DAV:   1    -0.643439326934E+03    0.27008E-02   -0.28777E-01  9648   0.251E+00    0.317E-01
RMM:   2    -0.643455077428E+03   -0.15750E-01   -0.55690E-02 13121   0.690E-01    0.131E+00
RMM:   3    -0.643444153437E+03    0.10924E-01   -0.87402E-03 11482   0.336E-01    0.636E-01
RMM:   4    -0.643442796134E+03    0.13573E-02   -0.26119E-03 12036   0.140E-01    0.248E-01
RMM:   5    -0.643442512139E+03    0.28400E-03   -0.78584E-04 12184   0.723E-02    0.179E-01
RMM:   6    -0.643442442749E+03    0.69390E-04   -0.30712E-04 10844   0.526E-02    0.140E-01
RMM:   7    -0.643442323247E+03    0.11950E-03   -0.26970E-04 12485   0.443E-02    0.513E-02
RMM:   8    -0.643442440679E+03   -0.11743E-03   -0.16835E-04 10443   0.428E-02    0.169E-01
RMM:   9    -0.643442316806E+03    0.12387E-03   -0.10606E-04  9933   0.339E-02    0.390E-02
RMM:  10    -0.643442321564E+03   -0.47584E-05   -0.59714E-05  8278   0.218E-02
  54 F= -.64344232E+03 E0= -.64337686E+03  d E =-.882627E-03
       N       E                     dE             d eps       ncg     rms          rms(c)
DAV:   1    -0.643439979416E+03    0.23374E-02   -0.20083E-01  9096   0.207E+00    0.106E-01
RMM:   2    -0.643443289856E+03   -0.33104E-02   -0.30311E-02 13953   0.435E-01    0.338E-01
RMM:   3    -0.643442926549E+03    0.36331E-03   -0.23018E-03 13094   0.124E-01    0.148E-01
RMM:   4    -0.643443052401E+03   -0.12585E-03   -0.56452E-04 11518   0.714E-02    0.211E-01
RMM:   5    -0.643442858277E+03    0.19412E-03   -0.21576E-04 10688   0.459E-02    0.813E-02
RMM:   6    -0.643442840573E+03    0.17705E-04   -0.14390E-04 10625   0.285E-02    0.563E-02
RMM:   7    -0.643442851723E+03   -0.11150E-04   -0.90599E-05 10274   0.273E-02    0.764E-02
RMM:   8    -0.643442828059E+03    0.23664E-04   -0.63142E-05  9337   0.236E-02    0.401E-02
RMM:   9    -0.643442830190E+03   -0.21308E-05   -0.40012E-05  8263   0.185E-02
  55 F= -.64344283E+03 E0= -.64337741E+03  d E =-.508625E-03
       N       E                     dE             d eps       ncg     rms          rms(c)
DAV:   1    -0.643426383531E+03    0.16445E-01   -0.12887E+00  9312   0.524E+00    0.259E-01
RMM:   2    -0.643445744004E+03   -0.19360E-01   -0.18010E-01 13945   0.108E+00    0.798E-01
RMM:   3    -0.643443913276E+03    0.18307E-02   -0.13487E-02 13691   0.312E-01    0.374E-01
RMM:   4    -0.643444559182E+03   -0.64591E-03   -0.32285E-03 12721   0.164E-01    0.502E-01
RMM:   5    -0.643443380128E+03    0.11791E-02   -0.12637E-03 11650   0.107E-01    0.168E-01
RMM:   6    -0.643443385945E+03   -0.58163E-05   -0.86749E-04 11653   0.642E-02    0.169E-01
RMM:   7    -0.643443372051E+03    0.13893E-04   -0.53949E-04 11884   0.626E-02    0.169E-01
RMM:   8    -0.643443265367E+03    0.10668E-03   -0.38309E-04 11225   0.557E-02    0.963E-02
RMM:   9    -0.643443238841E+03    0.26526E-04   -0.22941E-04 11305   0.376E-02    0.976E-02
RMM:  10    -0.643443207689E+03    0.31152E-04   -0.12616E-04 10325   0.280E-02    0.232E-02
RMM:  11    -0.643443210249E+03   -0.25608E-05   -0.61655E-05  8495   0.166E-02
  56 F= -.64344321E+03 E0= -.64337792E+03  d E =-.888685E-03
       N       E                     dE             d eps       ncg     rms          rms(c)
DAV:   1    -0.643438464085E+03    0.47436E-02   -0.29348E-01  9096   0.273E+00    0.176E-01
RMM:   2    -0.643445857434E+03   -0.73933E-02   -0.58068E-02 14229   0.565E-01    0.567E-01
RMM:   3    -0.643444026032E+03    0.18314E-02   -0.46478E-03 12197   0.210E-01    0.257E-01
RMM:   4    -0.643444018232E+03    0.78001E-05   -0.14113E-03 11877   0.938E-02    0.221E-01
RMM:   5    -0.643443742974E+03    0.27526E-03   -0.37018E-04 11448   0.577E-02    0.775E-02
RMM:   6    -0.643443774623E+03   -0.31648E-04   -0.23646E-04 11114   0.359E-02    0.115E-01
RMM:   7    -0.643443734942E+03    0.39680E-04   -0.11015E-04 10784   0.298E-02    0.801E-02
RMM:   8    -0.643443732048E+03    0.28943E-05   -0.80627E-05  9683   0.302E-02
  57 F= -.64344373E+03 E0= -.64337859E+03  d E =-.521799E-03
       N       E                     dE             d eps       ncg     rms          rms(c)
DAV:   1    -0.643418989613E+03    0.24745E-01   -0.13421E+00  9072   0.583E+00    0.397E-01
RMM:   2    -0.643458766784E+03   -0.39777E-01   -0.27791E-01 14219   0.124E+00    0.158E+00
RMM:   3    -0.643446120540E+03    0.12646E-01   -0.22897E-02 12501   0.469E-01    0.699E-01
RMM:   4    -0.643445039331E+03    0.10812E-02   -0.72510E-03 12876   0.207E-01    0.422E-01
RMM:   5    -0.643444486790E+03    0.55254E-03   -0.21053E-03 12626   0.117E-01    0.375E-01
RMM:   6    -0.643443986809E+03    0.49998E-03   -0.88683E-04 11382   0.775E-02    0.158E-01
RMM:   7    -0.643444004453E+03   -0.17644E-04   -0.57276E-04 12478   0.594E-02    0.208E-01
RMM:   8    -0.643443906580E+03    0.97873E-04   -0.38311E-04 11489   0.629E-02    0.158E-01
RMM:   9    -0.643443906722E+03   -0.14241E-06   -0.42880E-04 12861   0.540E-02    0.154E-01
RMM:  10    -0.643443795810E+03    0.11091E-03   -0.18157E-04 11019   0.441E-02    0.495E-02
RMM:  11    -0.643443804358E+03   -0.85473E-05   -0.12753E-04 10448   0.239E-02    0.547E-02
RMM:  12    -0.643443797251E+03    0.71066E-05   -0.65663E-05  9284   0.204E-02
  58 F= -.64344380E+03 E0= -.64337900E+03  d E =-.587002E-03
       N       E                     dE             d eps       ncg     rms          rms(c)
DAV:   1    -0.643439944528E+03    0.38598E-02   -0.21701E-01  9072   0.235E+00    0.154E-01
RMM:   2    -0.643445553737E+03   -0.56092E-02   -0.44219E-02 14176   0.489E-01    0.504E-01
RMM:   3    -0.643444220930E+03    0.13328E-02   -0.34257E-03 11764   0.180E-01    0.232E-01
RMM:   4    -0.643444180958E+03    0.39972E-04   -0.97141E-04 11454   0.839E-02    0.182E-01
RMM:   5    -0.643443982944E+03    0.19801E-03   -0.24260E-04 10866   0.484E-02    0.768E-02
RMM:   6    -0.643443987690E+03   -0.47460E-05   -0.13054E-04 10262   0.309E-02    0.870E-02
RMM:   7    -0.643443966843E+03    0.20846E-04   -0.68791E-05  9070   0.243E-02    0.748E-02
RMM:   8    -0.643443956871E+03    0.99726E-05   -0.45379E-05  6496   0.252E-02
[...]
DAV:   1    -0.643431571906E+03    0.14351E-01   -0.47132E-01  9360   0.441E+00    0.197E-01
RMM:   2    -0.643447232069E+03   -0.15660E-01   -0.14830E-01 14138   0.844E-01    0.544E-01
RMM:   3    -0.643446893616E+03    0.33845E-03   -0.11360E-02 13145   0.271E-01    0.337E-01
RMM:   4    -0.643446974041E+03   -0.80424E-04   -0.23960E-03 12295   0.127E-01    0.288E-01
RMM:   5    -0.643446585823E+03    0.38822E-03   -0.68158E-04 11321   0.749E-02    0.166E-01
RMM:   6    -0.643446513145E+03    0.72678E-04   -0.39587E-04 11354   0.424E-02    0.828E-02
RMM:   7    -0.643446537149E+03   -0.24004E-04   -0.20306E-04 11244   0.363E-02    0.123E-01
RMM:   8    -0.643446472788E+03    0.64361E-04   -0.14967E-04 10837   0.353E-02    0.651E-02
RMM:   9    -0.643446476855E+03   -0.40670E-05   -0.12237E-04 10878   0.290E-02    0.801E-02
RMM:  10    -0.643446449571E+03    0.27284E-04   -0.55265E-05  9303   0.238E-02    0.226E-02
RMM:  11    -0.643446450832E+03   -0.12616E-05   -0.33801E-05  7904   0.144E-02
  70 F= -.64344645E+03 E0= -.64338256E+03  d E =-.529301E-03
       N       E                     dE             d eps       ncg     rms          rms(c)
DAV:   1    -0.643431351378E+03    0.15098E-01   -0.48327E-01  9408   0.451E+00    0.196E-01
RMM:   2    -0.643446938666E+03   -0.15587E-01   -0.15197E-01 14130   0.855E-01    0.449E-01
RMM:   3    -0.643447162403E+03   -0.22374E-03   -0.11393E-02 13196   0.267E-01    0.379E-01
RMM:   4    -0.643447148471E+03    0.13932E-04   -0.24001E-03 12213   0.128E-01    0.300E-01
RMM:   5    -0.643446721619E+03    0.42685E-03   -0.69168E-04 11331   0.763E-02    0.154E-01
RMM:   6    -0.643446667822E+03    0.53797E-04   -0.41988E-04 11373   0.424E-02    0.859E-02
RMM:   7    -0.643446690422E+03   -0.22600E-04   -0.20128E-04 11242   0.353E-02    0.123E-01
RMM:   8    -0.643446628935E+03    0.61486E-04   -0.14605E-04 10945   0.349E-02    0.679E-02
RMM:   9    -0.643446647432E+03   -0.18497E-04   -0.13222E-04 10945   0.297E-02    0.100E-01
RMM:  10    -0.643446602662E+03    0.44770E-04   -0.58764E-05  9464   0.258E-02    0.217E-02
RMM:  11    -0.643446614647E+03   -0.11986E-04   -0.55073E-05  8552   0.165E-02    0.475E-02
RMM:  12    -0.643446605802E+03    0.88456E-05   -0.24997E-05  6755   0.180E-02
  71 F= -.64344661E+03 E0= -.64338282E+03  d E =-.684271E-03
       N       E                     dE             d eps       ncg     rms          rms(c)
DAV:   1    -0.643431429537E+03    0.15185E-01   -0.49636E-01  9648   0.459E+00    0.191E-01
RMM:   2    -0.643447178549E+03   -0.15749E-01   -0.15638E-01 14234   0.843E-01    0.383E-01
RMM:   3    -0.643447700685E+03   -0.52214E-03   -0.10743E-02 13322   0.268E-01    0.443E-01
RMM:   4    -0.643447614347E+03    0.86338E-04   -0.25632E-03 12428   0.132E-01    0.315E-01
RMM:   5    -0.643447055475E+03    0.55887E-03   -0.66869E-04 11315   0.788E-02    0.857E-02
RMM:   6    -0.643447098650E+03   -0.43175E-04   -0.47543E-04 11292   0.380E-02    0.113E-01
RMM:   7    -0.643447030689E+03    0.67961E-04   -0.19700E-04 11286   0.352E-02    0.476E-02
RMM:   8    -0.643447081296E+03   -0.50607E-04   -0.13961E-04 10997   0.341E-02    0.122E-01
RMM:   9    -0.643447013145E+03    0.68151E-04   -0.82988E-05 10450   0.281E-02    0.153E-02
RMM:  10    -0.643447017477E+03   -0.43323E-05   -0.53147E-05  8783   0.171E-02
  72 F= -.64344702E+03 E0= -.64338324E+03  d E =-.411675E-03
       N       E                     dE             d eps       ncg     rms          rms(c)
DAV:   1    -0.643431361792E+03    0.15651E-01   -0.50410E-01  9696   0.462E+00    0.193E-01
RMM:   2    -0.643447390995E+03   -0.16029E-01   -0.15864E-01 14208   0.847E-01    0.394E-01
RMM:   3    -0.643447758480E+03   -0.36748E-03   -0.10688E-02 13307   0.267E-01    0.429E-01
RMM:   4    -0.643447742351E+03    0.16129E-04   -0.26607E-03 12414   0.133E-01    0.329E-01
RMM:   5    -0.643447187643E+03    0.55471E-03   -0.69542E-04 11419   0.786E-02    0.117E-01
RMM:   6    -0.643447179549E+03    0.80933E-05   -0.48397E-04 11351   0.386E-02    0.844E-02
RMM:   7    -0.643447145979E+03    0.33571E-04   -0.20494E-04 11324   0.342E-02    0.639E-02
RMM:   8    -0.643447163207E+03   -0.17228E-04   -0.12647E-04 10893   0.329E-02    0.911E-02
RMM:   9    -0.643447131017E+03    0.32190E-04   -0.10817E-04 10911   0.277E-02    0.547E-02
RMM:  10    -0.643447123947E+03    0.70703E-05   -0.53905E-05  9405   0.214E-02
  73 F= -.64344712E+03 E0= -.64338335E+03  d E =-.518145E-03
       N       E                     dE             d eps       ncg     rms          rms(c)
DAV:   1    -0.643428547477E+03    0.18584E-01   -0.57269E-01  9408   0.494E+00    0.329E-01
RMM:   2    -0.643457281238E+03   -0.28734E-01   -0.21033E-01 14362   0.980E-01    0.125E+00
RMM:   3    -0.643449489750E+03    0.77915E-02   -0.15846E-02 12243   0.407E-01    0.714E-01
RMM:   4    -0.643448241094E+03    0.12487E-02   -0.47321E-03 12647   0.181E-01    0.372E-01
RMM:   5    -0.643447729554E+03    0.51154E-03   -0.13731E-03 12492   0.100E-01    0.259E-01
RMM:   6    -0.643447472247E+03    0.25731E-03   -0.59547E-04 11601   0.621E-02    0.127E-01
RMM:   7    -0.643447415860E+03    0.56386E-04   -0.35163E-04 12209   0.482E-02    0.113E-01
RMM:   8    -0.643447436234E+03   -0.20374E-04   -0.26753E-04 11318   0.507E-02    0.138E-01
RMM:   9    -0.643447338625E+03    0.97609E-04   -0.27095E-04 12374   0.459E-02    0.685E-02
RMM:  10    -0.643447338192E+03    0.43295E-06   -0.12061E-04 10914   0.314E-02    0.591E-02
RMM:  11    -0.643447326009E+03    0.12183E-04   -0.61341E-05  9708   0.206E-02    0.159E-02
RMM:  12    -0.643447333285E+03   -0.72761E-05   -0.44773E-05  7902   0.154E-02
  74 F= -.64344733E+03 E0= -.64338355E+03  d E =-.209338E-03
       N       E                     dE             d eps       ncg     rms          rms(c)
DAV:   1    -0.643446975270E+03    0.35074E-03   -0.11185E-02  9984   0.692E-01    0.450E-02
RMM:   2    -0.643447475407E+03   -0.50014E-03   -0.40009E-03 13488   0.134E-01    0.147E-01
RMM:   3    -0.643447375391E+03    0.10002E-03   -0.30267E-04  8689   0.609E-02    0.862E-02
RMM:   4    -0.643447365071E+03    0.10320E-04   -0.75805E-05  7122   0.290E-02    0.603E-02
RMM:   5    -0.643447352171E+03    0.12899E-04   -0.23761E-05  5561   0.224E-02    0.379E-02
RMM:   6    -0.643447347127E+03    0.50443E-05   -0.11585E-05  5238   0.149E-02
  75 F= -.64344735E+03 E0= -.64338357E+03  d E =-.223180E-03
       N       E                     dE             d eps       ncg     rms          rms(c)
DAV:   1    -0.643433760012E+03    0.13592E-01   -0.42098E-01  9456   0.413E+00    0.208E-01
RMM:   2    -0.643449080161E+03   -0.15320E-01   -0.14200E-01 14344   0.783E-01    0.542E-01
RMM:   3    -0.643447954147E+03    0.11260E-02   -0.85366E-03 12815   0.263E-01    0.362E-01
RMM:   4    -0.643448185446E+03   -0.23130E-03   -0.25700E-03 12384   0.126E-01    0.368E-01
RMM:   5    -0.643447597252E+03    0.58819E-03   -0.57863E-04 11108   0.780E-02    0.148E-01
RMM:   6    -0.643447526538E+03    0.70714E-04   -0.35254E-04 11319   0.409E-02    0.800E-02
RMM:   7    -0.643447532406E+03   -0.58678E-05   -0.16664E-04 11158   0.332E-02    0.999E-02
RMM:   8    -0.643447490027E+03    0.42379E-04   -0.10423E-04 10431   0.316E-02    0.555E-02
RMM:   9    -0.643447499686E+03   -0.96590E-05   -0.10162E-04 10739   0.266E-02    0.794E-02
RMM:  10    -0.643447471649E+03    0.28037E-04   -0.41484E-05  8143   0.223E-02    0.195E-02
RMM:  11    -0.643447471846E+03   -0.19732E-06   -0.27807E-05  7038   0.161E-02
  76 F= -.64344747E+03 E0= -.64338359E+03  d E =-.124719E-03
       N       E                     dE             d eps       ncg     rms          rms(c)
DAV:   1    -0.643446216672E+03    0.12550E-02   -0.38649E-02  9960   0.125E+00    0.626E-02
RMM:   2    -0.643447691849E+03   -0.14752E-02   -0.12998E-02 14008   0.235E-01    0.204E-01
RMM:   3    -0.643447528129E+03    0.16372E-03   -0.83233E-04 10579   0.830E-02    0.110E-01
RMM:   4    -0.643447519629E+03    0.85007E-05   -0.21091E-04  9669   0.416E-02    0.790E-02
RMM:   5    -0.643447484041E+03    0.35587E-04   -0.40913E-05  6162   0.250E-02    0.385E-02
RMM:   6    -0.643447481624E+03    0.24173E-05   -0.23398E-05  5773   0.181E-02
  77 F= -.64344748E+03 E0= -.64338362E+03  d E =-.134497E-03
       N       E                     dE             d eps       ncg     rms          rms(c)
DAV:   1    -0.643447077970E+03    0.40607E-03   -0.11586E-02  9864   0.693E-01    0.436E-02
RMM:   2    -0.643447680156E+03   -0.60219E-03   -0.42931E-03 13101   0.137E-01    0.201E-01
RMM:   3    -0.643447494805E+03    0.18535E-03   -0.30733E-04  7915   0.580E-02    0.661E-02
RMM:   4    -0.643447505448E+03   -0.10643E-04   -0.74101E-05  6516   0.289E-02    0.772E-02
RMM:   5    -0.643447487710E+03    0.17738E-04   -0.24123E-05  5546   0.231E-02    0.438E-02
RMM:   6    -0.643447479153E+03    0.85574E-05   -0.10451E-05  5265   0.142E-02
  78 F= -.64344748E+03 E0= -.64338361E+03  d E =-.132026E-03
       N       E                     dE             d eps       ncg     rms          rms(c)
DAV:   1    -0.643447385255E+03    0.10246E-03   -0.29129E-03 10344   0.347E-01    0.231E-02
RMM:   2    -0.643447551965E+03   -0.16671E-03   -0.10320E-03 11124   0.671E-02    0.116E-01
RMM:   3    -0.643447484564E+03    0.67401E-04   -0.75871E-05  6096   0.327E-02    0.397E-02
RMM:   4    -0.643447480738E+03    0.38256E-05   -0.18663E-05  5481   0.171E-02
  79 F= -.64344748E+03 E0= -.64338360E+03  d E =-.133611E-03
       N       E                     dE             d eps       ncg     rms          rms(c)
DAV:   1    -0.643447468259E+03    0.16304E-04   -0.57413E-04 12264   0.152E-01    0.326E-02
RMM:   2    -0.643447925274E+03   -0.45701E-03   -0.34053E-04  8114   0.518E-02    0.324E-01
RMM:   3    -0.643447491069E+03    0.43421E-03   -0.10402E-04  6768   0.408E-02    0.415E-02
RMM:   4    -0.643447479080E+03    0.11988E-04   -0.12241E-05  5092   0.134E-02    0.148E-02
RMM:   5    -0.643447480014E+03   -0.93425E-06   -0.47276E-06  4493   0.100E-02
  80 F= -.64344748E+03 E0= -.64338360E+03  d E =-.132887E-03
       N       E                     dE             d eps       ncg     rms          rms(c)
DAV:   1    -0.643447473189E+03    0.58912E-05   -0.20152E-04 12192   0.919E-02    0.111E-02
RMM:   2    -0.643447508419E+03   -0.35230E-04   -0.67995E-05  5950   0.222E-02    0.741E-02
RMM:   3    -0.643447479980E+03    0.28439E-04   -0.16883E-05  5375   0.204E-02    0.179E-02
RMM:   4    -0.643447478550E+03    0.14299E-05   -0.34324E-06  4257   0.691E-03
  81 F= -.64344748E+03 E0= -.64338361E+03  d E =-.131423E-03
       N       E                     dE             d eps       ncg     rms          rms(c)
DAV:   1    -0.643447477511E+03    0.24690E-05   -0.45383E-05  7752   0.465E-02    0.712E-03
RMM:   2    -0.643447493984E+03   -0.16473E-04   -0.19154E-05  5306   0.155E-02    0.560E-02
RMM:   3    -0.643447479450E+03    0.14534E-04   -0.66536E-06  4414   0.129E-02    0.135E-02
RMM:   4    -0.643447478708E+03    0.74191E-06   -0.19185E-06  3701   0.475E-03
  82 F= -.64344748E+03 E0= -.64338361E+03  d E =-.131581E-03
       N       E                     dE             d eps       ncg     rms          rms(c)
DAV:   1    -0.643447478504E+03    0.94600E-06   -0.84917E-06  5712   0.220E-02    0.559E-03
RMM:   2    -0.643447488734E+03   -0.10231E-04   -0.65917E-06  4489   0.974E-03    0.463E-02
RMM:   3    -0.643447479237E+03    0.94975E-05   -0.31280E-06  3594   0.852E-03
  83 F= -.64344748E+03 E0= -.64338362E+03  d E =-.132110E-03
       N       E                     dE             d eps       ncg     rms          rms(c)
DAV:   1    -0.643447478780E+03    0.99544E-05   -0.43004E-06  5400   0.135E-02    0.304E-03
RMM:   2    -0.643447482934E+03   -0.41544E-05   -0.17611E-06  3625   0.507E-03
  84 F= -.64344748E+03 E0= -.64338360E+03  d E =-.135808E-03
       N       E                     dE             d eps       ncg     rms          rms(c)
DAV:   1    -0.643447478850E+03   -0.69864E-07   -0.27487E-05  5376   0.164E-02    0.311E-03
RMM:   2    -0.643447481917E+03   -0.30676E-05   -0.11876E-06  3183   0.425E-03
  85 F= -.64344748E+03 E0= -.64338361E+03  d E =-.134791E-03
       N       E                     dE             d eps       ncg     rms          rms(c)
DAV:   1    -0.643447478971E+03   -0.12066E-06   -0.17816E-05  5376   0.131E-02    0.523E-03
RMM:   2    -0.643447488988E+03   -0.10017E-04   -0.35553E-06  3243   0.696E-03    0.475E-02
RMM:   3    -0.643447479424E+03    0.95639E-05   -0.25466E-06  3112   0.734E-03
  86 F= -.64344748E+03 E0= -.64338361E+03  d E =-.132297E-03
       N       E                     dE             d eps       ncg     rms          rms(c)
DAV:   1    -0.643442566455E+03    0.49225E-02   -0.14964E-01  9264   0.240E+00    0.169E-01
RMM:   2    -0.643450464550E+03   -0.78981E-02   -0.55141E-02 14276   0.507E-01    0.693E-01
RMM:   3    -0.643448152067E+03    0.23125E-02   -0.44416E-03 11503   0.203E-01    0.375E-01
RMM:   4    -0.643447747083E+03    0.40498E-03   -0.11800E-03 11420   0.944E-02    0.176E-01
RMM:   5    -0.643447659365E+03    0.87718E-04   -0.34307E-04 11551   0.508E-02    0.143E-01
RMM:   6    -0.643447575563E+03    0.83801E-04   -0.14920E-04 10636   0.334E-02    0.594E-02
RMM:   7    -0.643447560959E+03    0.14605E-04   -0.76820E-05 10040   0.234E-02    0.486E-02
RMM:   8    -0.643447571140E+03   -0.10182E-04   -0.55369E-05  8052   0.257E-02    0.703E-02
RMM:   9    -0.643447551602E+03    0.19538E-04   -0.60560E-05  8493   0.256E-02    0.442E-02
RMM:  10    -0.643447546999E+03    0.46030E-05   -0.27462E-05  6487   0.186E-02
  87 F= -.64344755E+03 E0= -.64338363E+03  d E =-.675749E-04
       N       E                     dE             d eps       ncg     rms          rms(c)
DAV:   1    -0.643447546334E+03    0.52676E-05   -0.52928E-05  8760   0.310E-02    0.132E-02
RMM:   2    -0.643447606578E+03   -0.60244E-04   -0.29455E-05  5665   0.212E-02    0.113E-01
RMM:   3    -0.643447548473E+03    0.58106E-04   -0.16314E-05  5447   0.198E-02    0.100E-02
RMM:   4    -0.643447548577E+03   -0.10420E-06   -0.52735E-06  4538   0.618E-03
  88 F= -.64344755E+03 E0= -.64338362E+03  d E =-.691529E-04
       N       E                     dE             d eps       ncg     rms          rms(c)
DAV:   1    -0.643445164230E+03    0.23842E-02   -0.71087E-02  9072   0.171E+00    0.959E-02
RMM:   2    -0.643447986508E+03   -0.28223E-02   -0.25603E-02 14201   0.361E-01    0.281E-01
RMM:   3    -0.643447796028E+03    0.19048E-03   -0.20716E-03 11941   0.119E-01    0.198E-01
RMM:   4    -0.643447751464E+03    0.44564E-04   -0.43516E-04 11380   0.598E-02    0.139E-01
RMM:   5    -0.643447653917E+03    0.97547E-04   -0.12420E-04 10471   0.365E-02    0.609E-02
RMM:   6    -0.643447646802E+03    0.71142E-05   -0.79514E-05  9460   0.224E-02
  89 F= -.64344765E+03 E0= -.64338363E+03  d E =-.982257E-04
       N       E                     dE             d eps       ncg     rms          rms(c)
DAV:   1    -0.643447520779E+03    0.13314E-03   -0.49244E-03 12048   0.435E-01    0.612E-02
RMM:   2    -0.643448676425E+03   -0.11556E-02   -0.19472E-03 11591   0.118E-01    0.451E-01
RMM:   3    -0.643447665102E+03    0.10113E-02   -0.40290E-04  8702   0.763E-02    0.705E-02
RMM:   4    -0.643447640838E+03    0.24265E-04   -0.82871E-05  8862   0.266E-02    0.391E-02
RMM:   5    -0.643447645737E+03   -0.48992E-05   -0.24661E-05  5908   0.191E-02
  90 F= -.64344765E+03 E0= -.64338362E+03  d E =-.971601E-04
       N       E                     dE             d eps       ncg     rms          rms(c)
DAV:   1    -0.643447844902E+03   -0.20406E-03   -0.70217E-02 12048   0.151E+00    0.354E-01
RMM:   2    -0.643462077825E+03   -0.14233E-01   -0.27392E-02 11849   0.580E-01    0.136E+00
RMM:   3    -0.643448619306E+03    0.13459E-01   -0.76999E-03 11082   0.338E-01    0.470E-01
RMM:   4    -0.643448046535E+03    0.57277E-03   -0.16295E-03 12040   0.124E-01    0.311E-01
RMM:   5    -0.643447764447E+03    0.28209E-03   -0.61293E-04 11851   0.725E-02    0.256E-01
RMM:   6    -0.643447539600E+03    0.22485E-03   -0.30828E-04 10453   0.623E-02    0.143E-01
RMM:   7    -0.643447467910E+03    0.71690E-04   -0.34813E-04 12436   0.505E-02    0.122E-01
RMM:   8    -0.643447431027E+03    0.36883E-04   -0.13867E-04  9921   0.455E-02    0.912E-02
RMM:   9    -0.643447415416E+03    0.15611E-04   -0.85710E-05  9958   0.289E-02    0.698E-02
RMM:  10    -0.643447394672E+03    0.20745E-04   -0.38558E-05  6917   0.217E-02    0.323E-02
RMM:  11    -0.643447390112E+03    0.45599E-05   -0.21319E-05  6133   0.184E-02
  91 F= -.64344739E+03 E0= -.64338323E+03  d E =0.255625E-03
       N       E                     dE             d eps       ncg     rms          rms(c)
DAV:   1    -0.643447926801E+03   -0.53213E-03   -0.49389E-02 12168   0.127E+00    0.289E-01
RMM:   2    -0.643456905354E+03   -0.89786E-02   -0.18721E-02 11865   0.483E-01    0.108E+00
RMM:   3    -0.643448271418E+03    0.86339E-02   -0.50311E-03 10963   0.275E-01    0.318E-01
RMM:   4    -0.643448117290E+03    0.15413E-03   -0.11260E-03 11902   0.105E-01    0.272E-01
RMM:   5    -0.643447790438E+03    0.32685E-03   -0.41951E-04 11347   0.640E-02    0.169E-01
RMM:   6    -0.643447763010E+03    0.27428E-04   -0.20563E-04  9982   0.522E-02    0.163E-01
RMM:   7    -0.643447720947E+03    0.42062E-04   -0.24113E-04 11491   0.444E-02    0.140E-01
RMM:   8    -0.643447630771E+03    0.90176E-04   -0.10139E-04  7932   0.417E-02    0.525E-02
RMM:   9    -0.643447636327E+03   -0.55556E-05   -0.58927E-05  7447   0.243E-02
  92 F= -.64344764E+03 E0= -.64338355E+03  d E =0.941016E-05
       N       E                     dE             d eps       ncg     rms          rms(c)
DAV:   1    -0.643447625470E+03    0.53010E-05   -0.44462E-04 13704   0.113E-01    0.357E-02
RMM:   2    -0.643447942410E+03   -0.31694E-03   -0.24895E-04  8110   0.521E-02    0.239E-01
RMM:   3    -0.643447642585E+03    0.29982E-03   -0.97471E-05  6851   0.431E-02    0.507E-02
RMM:   4    -0.643447628790E+03    0.13796E-04   -0.14204E-05  5372   0.160E-02    0.288E-02
RMM:   5    -0.643447627437E+03    0.13528E-05   -0.60781E-06  4555   0.115E-02
  93 F= -.64344763E+03 E0= -.64338354E+03  d E =0.183000E-04
       N       E                     dE             d eps       ncg     rms          rms(c)
DAV:   1    -0.643447627793E+03    0.99615E-06   -0.21150E-04 12912   0.802E-02    0.220E-02
RMM:   2    -0.643447691610E+03   -0.63816E-04   -0.81739E-05  6721   0.326E-02    0.103E-01
RMM:   3    -0.643447639060E+03    0.52550E-04   -0.27293E-05  5670   0.256E-02    0.501E-02
RMM:   4    -0.643447629110E+03    0.99499E-05   -0.69139E-06  4656   0.116E-02
  94 F= -.64344763E+03 E0= -.64338356E+03  d E =0.166271E-04
       N       E                     dE             d eps       ncg     rms          rms(c)
DAV:   1    -0.643447630046E+03    0.90140E-05   -0.63310E-05  9408   0.443E-02    0.246E-02
RMM:   2    -0.643447811574E+03   -0.18153E-03   -0.10696E-04  6971   0.373E-02    0.193E-01
RMM:   3    -0.643447638036E+03    0.17354E-03   -0.45170E-05  5914   0.289E-02    0.368E-02
RMM:   4    -0.643447630024E+03    0.80119E-05   -0.67298E-06  4500   0.102E-02
  95 F= -.64344763E+03 E0= -.64338357E+03  d E =0.157131E-04
       N       E                     dE             d eps       ncg     rms          rms(c)
DAV:   1    -0.643446698944E+03    0.93909E-03   -0.37744E-02 10320   0.124E+00    0.805E-02
RMM:   2    -0.643448074563E+03   -0.13756E-02   -0.10873E-02 14105   0.255E-01    0.248E-01
RMM:   3    -0.643447732632E+03    0.34193E-03   -0.99528E-04 10709   0.103E-01    0.130E-01
RMM:   4    -0.643447731300E+03    0.13322E-05   -0.24759E-04 10778   0.474E-02    0.117E-01
RMM:   5    -0.643447675253E+03    0.56047E-04   -0.76872E-05  9321   0.294E-02    0.538E-02
RMM:   6    -0.643447669101E+03    0.61515E-05   -0.37242E-05  6935   0.204E-02
  96 F= -.64344767E+03 E0= -.64338354E+03  d E =-.390776E-04
