<?xml version="1.0" encoding="ISO-8859-1"?>
<modeling>
 <generator>
  <i name="program" type="string">vasp </i>
  <i name="version" type="string">5.4.4.18Apr17-6-g9f103f2a35  </i>
  <i name="subversion" type="string">(build Oct 18 2021 20:38:43) complex            parallel </i>
  <i name="platform" type="string">LinuxIFC </i>
  <i name="date" type="string">2024 06 11 </i>
  <i name="time" type="string">17:03:58 </i>
 </generator>
 <incar>
  <i type="string" name="SYSTEM">HECN</i>
  <i type="int" name="ISTART">     0</i>
  <i type="string" name="PREC">normal</i>
  <i type="string" name="ALGO">Fast</i>
  <i type="int" name="ICHARG">     2</i>
  <i type="int" name="NELM">    60</i>
  <i type="int" name="IBRION">     2</i>
  <i name="EDIFF">      0.00001000</i>
  <i name="EDIFFG">     -0.01000000</i>
  <i type="int" name="NSW">   100</i>
  <i type="int" name="ISIF">     3</i>
  <i name="ENCUT">    400.00000000</i>
  <i name="POTIM">      0.50000000</i>
  <i type="logical" name="LREAL"> F  </i>
  <i type="int" name="ISMEAR">     0</i>
  <i name="SIGMA">      0.10000000</i>
  <i type="logical" name="LWAVE"> F  </i>
  <i type="logical" name="LCHARG"> F  </i>
  <v type="int" name="KPOINT_BSE">    -1     0     0     0</v>
  <i type="int" name="NELM">    60</i>
 </incar>
 <structure name="primitive_cell" >
  <crystal>
   <varray name="basis" >
    <v>       8.93249989       0.00000000       0.00000000 </v>
    <v>       0.00575300       9.05559834       0.00000000 </v>
    <v>       0.03210180      -0.01574346       8.93712807 </v>
   </varray>
   <i name="volume">    722.91652451 </i>
   <varray name="rec_basis" >
    <v>       0.11195074      -0.00007112      -0.00040225 </v>
    <v>       0.00000000       0.11042893       0.00019453 </v>
    <v>       0.00000000       0.00000000       0.11189277 </v>
   </varray>
  </crystal>
  <varray name="positions" >
   <v>      -0.00311999      -0.00795003      -0.00075998 </v>
   <v>      -0.25232999      -0.00252000       0.01202000 </v>
   <v>      -0.00162995      -0.25686004       0.00460000 </v>
   <v>      -0.00280000      -0.00228008       0.25899999 </v>
   <v>       0.00281000       0.25024000       0.00130000 </v>
   <v>      -0.01103011       0.00202000      -0.26291001 </v>
   <v>       0.26146999      -0.00015998      -0.00704004 </v>
   <v>      -0.00135002      -0.22426001       0.26102000 </v>
   <v>      -0.25720997      -0.02130006      -0.23549005 </v>
   <v>       0.23780002       0.01082000      -0.25392002 </v>
   <v>      -0.24282000      -0.25897003       0.01100000 </v>
   <v>       0.24762001      -0.25026001      -0.00025994 </v>
   <v>      -0.00485996      -0.25507996      -0.25488003 </v>
   <v>      -0.24281000       0.25603001      -0.00408003 </v>
   <v>       0.25398003      -0.00285005       0.24912000 </v>
   <v>       0.24788999       0.24839000      -0.00342003 </v>
   <v>      -0.00562996       0.23617001       0.26379999 </v>
   <v>      -0.25120996      -0.01212001       0.26967001 </v>
   <v>       0.00201000       0.25541000      -0.26105999 </v>
   <v>       0.24177002      -0.24659003      -0.24981998 </v>
   <v>      -0.24963995      -0.25112000      -0.25243996 </v>
   <v>      -0.24255004       0.24437997      -0.25103001 </v>
   <v>       0.25133999      -0.25041998       0.24910999 </v>
   <v>      -0.24367000      -0.26108997       0.25767000 </v>
   <v>      -0.24686002       0.24616999       0.25492002 </v>
   <v>       0.24982001       0.24942998       0.24825000 </v>
   <v>       0.24900999       0.25315000      -0.25146000 </v>
   <v>      -0.48411003       0.01358000      -0.01924992 </v>
   <v>      -0.00158006      -0.49023002      -0.01386996 </v>
   <v>       0.02362000      -0.00216999       0.49557002 </v>
   <v>      -0.49480995      -0.23869001       0.00855000 </v>
   <v>      -0.49285006      -0.00023001       0.24673000 </v>
   <v>      -0.24160996      -0.49684002       0.00288000 </v>
   <v>      -0.00999997      -0.23784997       0.49746000 </v>
   <v>      -0.00948001       0.48088003       0.24100999 </v>
   <v>       0.24446000      -0.00176004      -0.49712002 </v>
   <v>      -0.26367999       0.00417000      -0.48937000 </v>
   <v>       0.24328000      -0.49927003      -0.00489006 </v>
   <v>      -0.49572003       0.24673000       0.00262000 </v>
   <v>      -0.00796004      -0.49944001      -0.24861998 </v>
   <v>      -0.00195991       0.24229999      -0.49871997 </v>
   <v>      -0.49991002       0.00061000      -0.26528002 </v>
   <v>      -0.26123997      -0.47171998      -0.26185001 </v>
   <v>       0.49950005      -0.24518001      -0.25182996 </v>
   <v>       0.24457999      -0.24951001       0.49983999 </v>
   <v>      -0.24599997      -0.27062001       0.49116997 </v>
   <v>      -0.49520997       0.24631001      -0.25289998 </v>
   <v>       0.24803003      -0.49835000       0.24955001 </v>
   <v>      -0.26448999      -0.48531996       0.26666001 </v>
   <v>      -0.49167000       0.25676999       0.25376001 </v>
   <v>      -0.49620997      -0.26073003       0.25905001 </v>
   <v>      -0.24692999       0.26163001      -0.49466998 </v>
   <v>       0.25272001       0.24823001      -0.49984997 </v>
   <v>       0.25679999       0.49462002      -0.25454998 </v>
   <v>       0.47957999      -0.01691999       0.49717999 </v>
   <v>      -0.49498994       0.49745998      -0.00165997 </v>
   <v>      -0.00572008      -0.49550001       0.49779000 </v>
   <v>      -0.49436004       0.23264998       0.49544997 </v>
   <v>      -0.49424994      -0.25041998       0.49720000 </v>
   <v>      -0.49299998      -0.49666998       0.25878999 </v>
   <v>      -0.49498997      -0.49782002      -0.26087997 </v>
   <v>      -0.25963999      -0.49803000      -0.49932997 </v>
   <v>       0.25841001      -0.49937998      -0.49870999 </v>
   <v>      -0.49461000      -0.47166995       0.49917999 </v>
  </varray>
 </structure>
 <varray name="primitive_index" >
  <v type="int" >        1 </v>
  <v type="int" >       25 </v>
  <v type="int" >       38 </v>
  <v type="int" >       34 </v>
  <v type="int" >       23 </v>
  <v type="int" >       29 </v>
  <v type="int" >       22 </v>
  <v type="int" >       59 </v>
  <v type="int" >       58 </v>
  <v type="int" >       56 </v>
  <v type="int" >        9 </v>
  <v type="int" >       18 </v>
  <v type="int" >       12 </v>
  <v type="int" >       17 </v>
  <v type="int" >        2 </v>
  <v type="int" >       14 </v>
  <v type="int" >        8 </v>
  <v type="int" >       16 </v>
  <v type="int" >       10 </v>
  <v type="int" >       45 </v>
  <v type="int" >       49 </v>
  <v type="int" >       30 </v>
  <v type="int" >       36 </v>
  <v type="int" >       39 </v>
  <v type="int" >       24 </v>
  <v type="int" >       21 </v>
  <v type="int" >       42 </v>
  <v type="int" >       53 </v>
  <v type="int" >       54 </v>
  <v type="int" >       61 </v>
  <v type="int" >       28 </v>
  <v type="int" >       26 </v>
  <v type="int" >       40 </v>
  <v type="int" >       47 </v>
  <v type="int" >       27 </v>
  <v type="int" >       43 </v>
  <v type="int" >       31 </v>
  <v type="int" >       37 </v>
  <v type="int" >       35 </v>
  <v type="int" >       48 </v>
  <v type="int" >       44 </v>
  <v type="int" >       33 </v>
  <v type="int" >       63 </v>
  <v type="int" >        7 </v>
  <v type="int" >       20 </v>
  <v type="int" >       64 </v>
  <v type="int" >        5 </v>
  <v type="int" >        3 </v>
  <v type="int" >       60 </v>
  <v type="int" >       15 </v>
  <v type="int" >       55 </v>
  <v type="int" >       11 </v>
  <v type="int" >       19 </v>
  <v type="int" >       13 </v>
  <v type="int" >       57 </v>
  <v type="int" >        4 </v>
  <v type="int" >        6 </v>
  <v type="int" >       32 </v>
  <v type="int" >       51 </v>
  <v type="int" >       41 </v>
  <v type="int" >       52 </v>
  <v type="int" >       50 </v>
  <v type="int" >       46 </v>
  <v type="int" >       62 </v>
 </varray>
 <kpoints>
  <generation param="Gamma">
   <v type="int" name="divisions">       3        3        3 </v>
   <v name="usershift">      0.00000000       0.00000000       0.00000000 </v>
   <v name="genvec1">      0.33333333      -0.00000000      -0.00000000 </v>
   <v name="genvec2">      0.00000000       0.33333333       0.00000000 </v>
   <v name="genvec3">      0.00000000       0.00000000       0.33333333 </v>
   <v name="shift">      0.00000000       0.00000000       0.00000000 </v>
  </generation>
  <varray name="kpointlist" >
   <v>       0.00000000       0.00000000       0.00000000 </v>
   <v>       0.33333333       0.00000000       0.00000000 </v>
   <v>       0.00000000       0.33333333       0.00000000 </v>
   <v>       0.33333333       0.33333333       0.00000000 </v>
   <v>      -0.33333333       0.33333333       0.00000000 </v>
   <v>       0.00000000       0.00000000       0.33333333 </v>
   <v>       0.33333333       0.00000000       0.33333333 </v>
   <v>      -0.33333333       0.00000000       0.33333333 </v>
   <v>       0.00000000       0.33333333       0.33333333 </v>
   <v>       0.33333333       0.33333333       0.33333333 </v>
   <v>      -0.33333333       0.33333333       0.33333333 </v>
   <v>       0.00000000      -0.33333333       0.33333333 </v>
   <v>       0.33333333      -0.33333333       0.33333333 </v>
   <v>      -0.33333333      -0.33333333       0.33333333 </v>
  </varray>
  <varray name="weights" >
   <v>       0.03703704 </v>
   <v>       0.07407407 </v>
   <v>       0.07407407 </v>
   <v>       0.07407407 </v>
   <v>       0.07407407 </v>
   <v>       0.07407407 </v>
   <v>       0.07407407 </v>
   <v>       0.07407407 </v>
   <v>       0.07407407 </v>
   <v>       0.07407407 </v>
   <v>       0.07407407 </v>
   <v>       0.07407407 </v>
   <v>       0.07407407 </v>
   <v>       0.07407407 </v>
  </varray>
 </kpoints>
 <parameters>
  <separator name="general" >
   <i type="string" name="SYSTEM">HECN</i>
   <i type="logical" name="LCOMPAT"> F  </i>
  </separator>
  <separator name="electronic" >
   <i type="string" name="PREC">normal</i>
   <i name="ENMAX">    400.00000000</i>
   <i name="ENAUG">    644.87300000</i>
   <i name="EDIFF">      0.00001000</i>
   <i type="int" name="IALGO">    68</i>
   <i type="int" name="IWAVPR">    11</i>
   <i type="int" name="NBANDS">   312</i>
   <i name="NELECT">    507.00000000</i>
   <i type="int" name="TURBO">     0</i>
   <i type="int" name="IRESTART">     0</i>
   <i type="int" name="NREBOOT">     0</i>
   <i type="int" name="NMIN">     0</i>
   <i name="EREF">      0.00000000</i>
   <separator name="electronic smearing" >
    <i type="int" name="ISMEAR">     0</i>
    <i name="SIGMA">      0.10000000</i>
    <i name="KSPACING">      0.50000000</i>
    <i type="logical" name="KGAMMA"> T  </i>
   </separator>
   <separator name="electronic projectors" >
    <i type="logical" name="LREAL"> F  </i>
    <v name="ROPT">      0.00000000      0.00000000      0.00000000      0.00000000      0.00000000      0.00000000      0.00000000</v>
    <i type="int" name="LMAXPAW">  -100</i>
    <i type="int" name="LMAXMIX">     2</i>
    <i type="logical" name="NLSPLINE"> F  </i>
   </separator>
   <separator name="electronic startup" >
    <i type="int" name="ISTART">     0</i>
    <i type="int" name="ICHARG">     2</i>
    <i type="int" name="INIWAV">     1</i>
   </separator>
   <separator name="electronic spin" >
    <i type="int" name="ISPIN">     1</i>
    <i type="logical" name="LNONCOLLINEAR"> F  </i>
    <v name="MAGMOM">      1.00000000      1.00000000      1.00000000      1.00000000      1.00000000      1.00000000      1.00000000      1.00000000      1.00000000      1.00000000      1.00000000      1.00000000      1.00000000      1.00000000      1.00000000      1.00000000      1.00000000      1.00000000      1.00000000      1.00000000
      1.00000000      1.00000000      1.00000000      1.00000000      1.00000000      1.00000000      1.00000000      1.00000000      1.00000000      1.00000000      1.00000000      1.00000000      1.00000000      1.00000000      1.00000000      1.00000000      1.00000000      1.00000000      1.00000000      1.00000000
      1.00000000      1.00000000      1.00000000      1.00000000      1.00000000      1.00000000      1.00000000      1.00000000      1.00000000      1.00000000      1.00000000      1.00000000      1.00000000      1.00000000      1.00000000      1.00000000      1.00000000      1.00000000      1.00000000      1.00000000
      1.00000000      1.00000000      1.00000000      1.00000000</v>
    <i name="NUPDOWN">     -1.00000000</i>
    <i type="logical" name="LSORBIT"> F  </i>
    <v name="SAXIS">      0.00000000      0.00000000      1.00000000</v>
    <i type="logical" name="LSPIRAL"> F  </i>
    <v name="QSPIRAL">      0.00000000      0.00000000      0.00000000</v>
    <i type="logical" name="LZEROZ"> F  </i>
   </separator>
   <separator name="electronic exchange-correlation" >
    <i type="logical" name="LASPH"> F  </i>
    <i type="logical" name="LMETAGGA"> F  </i>
   </separator>
   <separator name="electronic convergence" >
    <i type="int" name="NELM">    60</i>
    <i type="int" name="NELMDL">    -5</i>
    <i type="int" name="NELMIN">     2</i>
    <i name="ENINI">    400.00000000</i>
    <separator name="electronic convergence detail" >
     <i type="logical" name="LDIAG"> T  </i>
     <i type="logical" name="LSUBROT"> F  </i>
     <i name="WEIMIN">      0.00100000</i>
     <i name="EBREAK">      0.00000001</i>
     <i name="DEPER">      0.30000000</i>
     <i type="int" name="NRMM">     4</i>
     <i name="TIME">      0.40000000</i>
    </separator>
   </separator>
   <separator name="electronic mixer" >
    <i name="AMIX">      0.40000000</i>
    <i name="BMIX">      1.00000000</i>
    <i name="AMIN">      0.10000000</i>
    <i name="AMIX_MAG">      1.60000000</i>
    <i name="BMIX_MAG">      1.00000000</i>
    <separator name="electronic mixer details" >
     <i type="int" name="IMIX">     4</i>
     <i type="logical" name="MIXFIRST"> F  </i>
     <i type="int" name="MAXMIX">   -45</i>
     <i name="WC">    100.00000000</i>
     <i type="int" name="INIMIX">     1</i>
     <i type="int" name="MIXPRE">     1</i>
     <i type="int" name="MREMOVE">     5</i>
    </separator>
   </separator>
   <separator name="electronic dipolcorrection" >
    <i type="logical" name="LDIPOL"> F  </i>
    <i type="logical" name="LMONO"> F  </i>
    <i type="int" name="IDIPOL">     0</i>
    <i name="EPSILON">      1.00000000</i>
    <v name="DIPOL">   -100.00000000   -100.00000000   -100.00000000</v>
    <i name="EFIELD">      0.00000000</i>
   </separator>
  </separator>
  <separator name="grids" >
   <i type="int" name="NGX">    48</i>
   <i type="int" name="NGY">    48</i>
   <i type="int" name="NGZ">    48</i>
   <i type="int" name="NGXF">    96</i>
   <i type="int" name="NGYF">    96</i>
   <i type="int" name="NGZF">    96</i>
   <i type="logical" name="ADDGRID"> F  </i>
  </separator>
  <separator name="ionic" >
   <i type="int" name="NSW">   100</i>
   <i type="int" name="IBRION">     2</i>
   <i type="int" name="MDALGO">     0</i>
   <i type="int" name="ISIF">     3</i>
   <i name="PSTRESS">      0.00000000</i>
   <i name="EDIFFG">     -0.01000000</i>
   <i type="int" name="NFREE">     1</i>
   <i name="POTIM">      0.50000000</i>
   <i name="SMASS">     -3.00000000</i>
   <i name="SCALEE">      1.00000000</i>
  </separator>
  <separator name="ionic md" >
   <i name="TEBEG">      0.00010000</i>
   <i name="TEEND">      0.00010000</i>
   <i type="int" name="NBLOCK">     1</i>
   <i type="int" name="KBLOCK">   100</i>
   <i type="int" name="NPACO">   256</i>
   <i name="APACO">     16.00000000</i>
  </separator>
  <separator name="symmetry" >
   <i type="int" name="ISYM">     2</i>
   <i name="SYMPREC">      0.00001000</i>
  </separator>
  <separator name="dos" >
   <i type="int" name="LORBIT">     0</i>
   <v name="RWIGS">     -1.00000000     -1.00000000     -1.00000000     -1.00000000     -1.00000000     -1.00000000     -1.00000000</v>
   <i type="int" name="NEDOS">   301</i>
   <i name="EMIN">     10.00000000</i>
   <i name="EMAX">    -10.00000000</i>
   <i name="EFERMI">      0.00000000</i>
  </separator>
  <separator name="writing" >
   <i type="int" name="NWRITE">     2</i>
   <i type="logical" name="LWAVE"> F  </i>
   <i type="logical" name="LDOWNSAMPLE"> F  </i>
   <i type="logical" name="LCHARG"> F  </i>
   <i type="logical" name="LPARD"> F  </i>
   <i type="logical" name="LVTOT"> F  </i>
   <i type="logical" name="LVHAR"> F  </i>
   <i type="logical" name="LELF"> F  </i>
   <i type="logical" name="LOPTICS"> F  </i>
   <v name="STM">      0.00000000      0.00000000      0.00000000      0.00000000      0.00000000      0.00000000      0.00000000</v>
  </separator>
  <separator name="performance" >
   <i type="int" name="NPAR">    24</i>
   <i type="int" name="NSIM">     4</i>
   <i type="int" name="NBLK">    -1</i>
   <i type="logical" name="LPLANE"> T  </i>
   <i type="logical" name="LSCALAPACK"> T  </i>
   <i type="logical" name="LSCAAWARE"> F  </i>
   <i type="logical" name="LSCALU"> F  </i>
   <i type="logical" name="LASYNC"> F  </i>
   <i type="logical" name="LORBITALREAL"> F  </i>
  </separator>
  <separator name="miscellaneous" >
   <i type="int" name="IDIOT">     3</i>
   <i type="int" name="ISPECIAL">     0</i>
   <i type="logical" name="LMUSIC"> F  </i>
   <v name="POMASS">     91.22400000    178.49000000     47.88000000     14.00100000     12.01100000     51.99600000    180.94800000</v>
   <v name="DARWINR">      0.00000000      0.00000000      0.00000000      0.00000000      0.00000000      0.00000000      0.00000000</v>
   <v name="DARWINV">      1.00000000      1.00000000      1.00000000      1.00000000      1.00000000      1.00000000      1.00000000</v>
   <i type="logical" name="LCORR"> T  </i>
  </separator>
  <i type="logical" name="GGA_COMPAT"> T  </i>
  <i type="logical" name="LBERRY"> F  </i>
  <i type="int" name="ICORELEVEL">     0</i>
  <i type="logical" name="LDAU"> F  </i>
  <i type="int" name="I_CONSTRAINED_M">     0</i>
  <separator name="electronic exchange-correlation" >
   <i type="string" name="GGA">--</i>
   <i type="int" name="VOSKOWN">     0</i>
   <i type="logical" name="LHFCALC"> F  </i>
   <i type="string" name="PRECFOCK"></i>
   <i type="logical" name="LSYMGRAD"> F  </i>
   <i type="logical" name="LHFONE"> F  </i>
   <i type="logical" name="LRHFCALC"> F  </i>
   <i type="logical" name="LTHOMAS"> F  </i>
   <i type="logical" name="LMODELHF"> F  </i>
   <i name="ENCUT4O">     -1.00000000</i>
   <i type="int" name="EXXOEP">     0</i>
   <i type="int" name="FOURORBIT">     0</i>
   <i name="AEXX">      0.00000000</i>
   <i name="HFALPHA">      0.00000000</i>
   <i name="MCALPHA">      0.00000000</i>
   <i name="ALDAX">      1.00000000</i>
   <i name="AGGAX">      1.00000000</i>
   <i name="ALDAC">      1.00000000</i>
   <i name="AGGAC">      1.00000000</i>
   <i type="int" name="NKREDX">     1</i>
   <i type="int" name="NKREDY">     1</i>
   <i type="int" name="NKREDZ">     1</i>
   <i type="logical" name="SHIFTRED"> F  </i>
   <i type="logical" name="ODDONLY"> F  </i>
   <i type="logical" name="EVENONLY"> F  </i>
   <i type="int" name="LMAXFOCK">     0</i>
   <i type="int" name="NMAXFOCKAE">     0</i>
   <i type="logical" name="LFOCKAEDFT"> F  </i>
   <i name="HFSCREEN">      0.00000000</i>
   <i name="HFSCREENC">      0.00000000</i>
   <i type="int" name="NBANDSGWLOW">     0</i>
  </separator>
  <separator name="vdW DFT" >
   <i type="logical" name="LUSE_VDW"> F  </i>
   <i name="Zab_VDW">     -0.84910000</i>
   <i name="PARAM1">      0.12340000</i>
   <i name="PARAM2">      1.00000000</i>
   <i name="PARAM3">      0.00000000</i>
  </separator>
  <separator name="model GW" >
   <i type="int" name="MODEL_GW">     0</i>
   <i name="MODEL_EPS0">      6.77734242</i>
   <i name="MODEL_ALPHA">      1.00000000</i>
  </separator>
  <separator name="linear response parameters" >
   <i type="logical" name="LEPSILON"> F  </i>
   <i type="logical" name="LRPA"> F  </i>
   <i type="logical" name="LNABLA"> F  </i>
   <i type="logical" name="LVEL"> F  </i>
   <i type="int" name="KINTER">     0</i>
   <i name="CSHIFT">      0.10000000</i>
   <i name="OMEGAMAX">     -1.00000000</i>
   <i name="DEG_THRESHOLD">      0.00200000</i>
   <i name="RTIME">     -0.10000000</i>
   <i name="WPLASMAI">      0.00000000</i>
   <v name="DFIELD">      0.00000000      0.00000000      0.00000000</v>
   <v name="WPLASMA">      0.00000000      0.00000000      0.00000000      0.00000000      0.00000000      0.00000000      0.00000000      0.00000000      0.00000000</v>
  </separator>
  <separator name="orbital magnetization" >
   <i type="logical" name="NUCIND"> F  </i>
   <v name="MAGPOS">      0.00000000      0.00000000      0.00000000</v>
   <i type="logical" name="LNICSALL"> T  </i>
   <i type="logical" name="ORBITALMAG"> F  </i>
   <i type="logical" name="LMAGBLOCH"> F  </i>
   <i type="logical" name="LCHIMAG"> F  </i>
   <i type="logical" name="LGAUGE"> T  </i>
   <i type="int" name="MAGATOM">     0</i>
   <v name="MAGDIPOL">      0.00000000      0.00000000      0.00000000</v>
   <v name="AVECCONST">      0.00000000      0.00000000      0.00000000</v>
  </separator>
  <separator name="response functions" >
   <i type="logical" name="LADDER"> F  </i>
   <i type="logical" name="LRPAFORCE"> F  </i>
   <i type="logical" name="LFXC"> F  </i>
   <i type="logical" name="LHARTREE"> T  </i>
   <i type="int" name="IBSE">     0</i>
   <v type="int" name="KPOINT">    -1     0     0     0</v>
   <i type="logical" name="LTCTE"> F  </i>
   <i type="logical" name="LTETE"> F  </i>
   <i type="logical" name="LTRIPLET"> F  </i>
   <i type="logical" name="LFXCEPS"> F  </i>
   <i type="logical" name="LFXHEG"> F  </i>
   <i type="int" name="NATURALO">     2</i>
   <i type="logical" name="L2ORDER"> F  </i>
   <i type="logical" name="LMP2LT"> F  </i>
   <i type="logical" name="LUSEW"> F  </i>
   <i name="ENCUTGW">     -2.00000000</i>
   <i name="ENCUTGWSOFT">     -2.00000000</i>
   <i name="ENCUTLF">     -1.00000000</i>
   <i type="int" name="LMAXMP2">    -1</i>
   <i name="SCISSOR">      0.00000000</i>
   <i type="int" name="NOMEGA">     0</i>
   <i type="int" name="NOMEGAR">     0</i>
   <i type="int" name="NBANDSGW">    -1</i>
   <i type="int" name="NBANDSO">    -1</i>
   <i type="int" name="NBANDSV">    -1</i>
   <i type="int" name="NELM">    60</i>
   <i type="int" name="NELMHF">     1</i>
   <i type="int" name="DIM">     3</i>
   <i type="int" name="ANTIRES">     0</i>
   <i name="OMEGAMAX">    -30.00000000</i>
   <i name="OMEGAMIN">    -30.00000000</i>
   <i name="OMEGATL">   -200.00000000</i>
   <i type="int" name="OMEGAGRID">   140</i>
   <i name="CSHIFT">     -0.10000000</i>
   <i type="logical" name="SELFENERGY"> F  </i>
   <i type="logical" name="LSPECTRAL"> F  </i>
   <i type="logical" name="LSPECTRALGW"> F  </i>
   <i type="logical" name="LSINGLES"> F  </i>
   <i type="logical" name="LFERMIGW"> F  </i>
   <i type="logical" name="ODDONLYGW"> F  </i>
   <i type="logical" name="EVENONLYGW"> F  </i>
   <i type="int" name="NKREDLFX">     1</i>
   <i type="int" name="NKREDLFY">     1</i>
   <i type="int" name="NKREDLFZ">     1</i>
   <i type="int" name="MAXMEM">  2800</i>
   <i type="int" name="TELESCOPE">     0</i>
   <i type="int" name="TAUPAR">     1</i>
   <i type="int" name="OMEGAPAR">    -1</i>
   <i name="LAMBDA">      1.00000000</i>
  </separator>
  <separator name="External order field" >
   <i name="OFIELD_KAPPA">      0.00000000</i>
   <v name="OFIELD_K">      0.00000000      0.00000000      0.00000000</v>
   <i name="OFIELD_Q6_NEAR">      0.00000000</i>
   <i name="OFIELD_Q6_FAR">      0.00000000</i>
   <i name="OFIELD_A">      0.00000000</i>
  </separator>
 </parameters>
 <atominfo>
  <atoms>      64 </atoms>
  <types>       7 </types>
  <array name="atoms" >
   <dimension dim="1">ion</dimension>
   <field type="string">element</field>
   <field type="int">atomtype</field>
   <set>
    <rc><c>Zr</c><c>   1</c></rc>
    <rc><c>Zr</c><c>   1</c></rc>
    <rc><c>Zr</c><c>   1</c></rc>
    <rc><c>Zr</c><c>   1</c></rc>
    <rc><c>Zr</c><c>   1</c></rc>
    <rc><c>Zr</c><c>   1</c></rc>
    <rc><c>Zr</c><c>   1</c></rc>
    <rc><c>Hf</c><c>   2</c></rc>
    <rc><c>Hf</c><c>   2</c></rc>
    <rc><c>Hf</c><c>   2</c></rc>
    <rc><c>Hf</c><c>   2</c></rc>
    <rc><c>Hf</c><c>   2</c></rc>
    <rc><c>Hf</c><c>   2</c></rc>
    <rc><c>Ti</c><c>   3</c></rc>
    <rc><c>Ti</c><c>   3</c></rc>
    <rc><c>Ti</c><c>   3</c></rc>
    <rc><c>Ti</c><c>   3</c></rc>
    <rc><c>Ti</c><c>   3</c></rc>
    <rc><c>Ti</c><c>   3</c></rc>
    <rc><c>Ti</c><c>   3</c></rc>
    <rc><c>N </c><c>   4</c></rc>
    <rc><c>N </c><c>   4</c></rc>
    <rc><c>N </c><c>   4</c></rc>
    <rc><c>N </c><c>   4</c></rc>
    <rc><c>N </c><c>   4</c></rc>
    <rc><c>N </c><c>   4</c></rc>
    <rc><c>N </c><c>   4</c></rc>
    <rc><c>N </c><c>   4</c></rc>
    <rc><c>N </c><c>   4</c></rc>
    <rc><c>N </c><c>   4</c></rc>
    <rc><c>N </c><c>   4</c></rc>
    <rc><c>N </c><c>   4</c></rc>
    <rc><c>N </c><c>   4</c></rc>
    <rc><c>C </c><c>   5</c></rc>
    <rc><c>C </c><c>   5</c></rc>
    <rc><c>C </c><c>   5</c></rc>
    <rc><c>C </c><c>   5</c></rc>
    <rc><c>C </c><c>   5</c></rc>
    <rc><c>C </c><c>   5</c></rc>
    <rc><c>C </c><c>   5</c></rc>
    <rc><c>C </c><c>   5</c></rc>
    <rc><c>C </c><c>   5</c></rc>
    <rc><c>C </c><c>   5</c></rc>
    <rc><c>C </c><c>   5</c></rc>
    <rc><c>C </c><c>   5</c></rc>
    <rc><c>C </c><c>   5</c></rc>
    <rc><c>C </c><c>   5</c></rc>
    <rc><c>C </c><c>   5</c></rc>
    <rc><c>C </c><c>   5</c></rc>
    <rc><c>C </c><c>   5</c></rc>
    <rc><c>C </c><c>   5</c></rc>
    <rc><c>C </c><c>   5</c></rc>
    <rc><c>Cr</c><c>   6</c></rc>
    <rc><c>Cr</c><c>   6</c></rc>
    <rc><c>Cr</c><c>   6</c></rc>
    <rc><c>Cr</c><c>   6</c></rc>
    <rc><c>Cr</c><c>   6</c></rc>
    <rc><c>Cr</c><c>   6</c></rc>
    <rc><c>Ta</c><c>   7</c></rc>
    <rc><c>Ta</c><c>   7</c></rc>
    <rc><c>Ta</c><c>   7</c></rc>
    <rc><c>Ta</c><c>   7</c></rc>
    <rc><c>Ta</c><c>   7</c></rc>
    <rc><c>Ta</c><c>   7</c></rc>
   </set>
  </array>
  <array name="atomtypes" >
   <dimension dim="1">type</dimension>
   <field type="int">atomspertype</field>
   <field type="string">element</field>
   <field>mass</field>
   <field>valence</field>
   <field type="string">pseudopotential</field>
   <set>
    <rc><c>   7</c><c>Zr</c><c>     91.22400000</c><c>     12.00000000</c><c> PAW_PBE Zr_sv 07Sep2000                </c></rc>
    <rc><c>   6</c><c>Hf</c><c>    178.49000000</c><c>     10.00000000</c><c> PAW_PBE Hf_pv 06Sep2000                </c></rc>
    <rc><c>   7</c><c>Ti</c><c>     47.88000000</c><c>     12.00000000</c><c> PAW_PBE Ti_sv 07Sep2000                </c></rc>
    <rc><c>  13</c><c>N </c><c>     14.00100000</c><c>      5.00000000</c><c> PAW_PBE N 08Apr2002                    </c></rc>
    <rc><c>  19</c><c>C </c><c>     12.01100000</c><c>      4.00000000</c><c> PAW_PBE C 08Apr2002                    </c></rc>
    <rc><c>   6</c><c>Cr</c><c>     51.99600000</c><c>     12.00000000</c><c> PAW_PBE Cr_pv 07Sep2000                </c></rc>
    <rc><c>   6</c><c>Ta</c><c>    180.94800000</c><c>     11.00000000</c><c> PAW_PBE Ta_pv 07Sep2000                </c></rc>
   </set>
  </array>
 </atominfo>
 <structure name="initialpos" >
  <crystal>
   <varray name="basis" >
    <v>       8.93249989       0.00000000       0.00000000 </v>
    <v>       0.00575300       9.05559834       0.00000000 </v>
    <v>       0.03210180      -0.01574346       8.93712807 </v>
   </varray>
   <i name="volume">    722.91652451 </i>
   <varray name="rec_basis" >
    <v>       0.11195074      -0.00007112      -0.00040225 </v>
    <v>       0.00000000       0.11042893       0.00019453 </v>
    <v>       0.00000000       0.00000000       0.11189277 </v>
   </varray>
  </crystal>
  <varray name="positions" >
   <v>       0.99688001       0.99204997       0.99924002 </v>
   <v>       0.25398003       0.99714995       0.24912000 </v>
   <v>       0.24803003       0.50165000       0.24955001 </v>
   <v>       0.50501006       0.49745998       0.99834003 </v>
   <v>       0.50479003       0.24631001       0.74710002 </v>
   <v>       0.99427992       0.50449999       0.49779000 </v>
   <v>       0.49950005       0.75481999       0.74817004 </v>
   <v>       0.99437004       0.23617001       0.26379999 </v>
   <v>       0.75718000       0.74102998       0.01100000 </v>
   <v>       0.00201000       0.25541000       0.73894001 </v>
   <v>       0.75307001       0.26163001       0.50533002 </v>
   <v>       0.99514004       0.74492004       0.74511997 </v>
   <v>       0.25679999       0.49462002       0.74545002 </v>
   <v>       0.24788999       0.24839000       0.99657997 </v>
   <v>       0.50833000       0.25676999       0.25376001 </v>
   <v>       0.74879004       0.98787999       0.26967001 </v>
   <v>       0.75719000       0.25603001       0.99591997 </v>
   <v>       0.24762001       0.74973999       0.99974006 </v>
   <v>       0.25272001       0.24823001       0.50015003 </v>
   <v>       0.24457999       0.75048999       0.49983999 </v>
   <v>       0.24982001       0.24942998       0.24825000 </v>
   <v>       0.26146999       0.99984002       0.99295996 </v>
   <v>       0.00281000       0.25024000       0.00130000 </v>
   <v>       0.75313998       0.24617000       0.25492002 </v>
   <v>       0.74767001       0.99748000       0.01202000 </v>
   <v>       0.50714994       0.99977000       0.24673000 </v>
   <v>       0.99051999       0.48088002       0.24100998 </v>
   <v>       0.50519005       0.76130999       0.00855000 </v>
   <v>       0.98896989       0.00202000       0.73708999 </v>
   <v>       0.75744996       0.24437997       0.74896999 </v>
   <v>       0.73632001       0.00417000       0.51063000 </v>
   <v>       0.50563996       0.23264999       0.49544997 </v>
   <v>       0.50008998       0.00061000       0.73471998 </v>
   <v>       0.99720000       0.99771992       0.25899999 </v>
   <v>       0.50427997       0.24673000       0.00262000 </v>
   <v>       0.25133999       0.74958002       0.24910999 </v>
   <v>       0.24328000       0.50072997       0.99510994 </v>
   <v>       0.99837005       0.74313996       0.00460000 </v>
   <v>       0.75633000       0.73891003       0.25767000 </v>
   <v>       0.75839004       0.50315998       0.00288000 </v>
   <v>       0.50700002       0.50333002       0.25878999 </v>
   <v>       0.24900999       0.25315000       0.74854000 </v>
   <v>       0.24446000       0.99823996       0.50287998 </v>
   <v>       0.99804009       0.24229999       0.50128003 </v>
   <v>       0.24177002       0.75340997       0.75018002 </v>
   <v>       0.25841001       0.50062002       0.50129001 </v>
   <v>       0.99000004       0.76215003       0.49746000 </v>
   <v>       0.99203996       0.50055999       0.75138002 </v>
   <v>       0.75036005       0.74888000       0.74756004 </v>
   <v>       0.74036002       0.50197000       0.50067003 </v>
   <v>       0.50575006       0.74958002       0.49720000 </v>
   <v>       0.50501003       0.50217998       0.73912003 </v>
   <v>       0.51588997       0.01358000       0.98075008 </v>
   <v>       0.99841994       0.50976998       0.98613004 </v>
   <v>       0.50379003       0.73926997       0.25905001 </v>
   <v>       0.23780002       0.01082000       0.74607998 </v>
   <v>       0.47957999       0.98308000       0.49717999 </v>
   <v>       0.74279003       0.97869994       0.76450995 </v>
   <v>       0.99864998       0.77573999       0.26102000 </v>
   <v>       0.73551001       0.51468004       0.26666001 </v>
   <v>       0.02362000       0.99783001       0.49557002 </v>
   <v>       0.50539000       0.52833005       0.49917999 </v>
   <v>       0.73876003       0.52828003       0.73814999 </v>
   <v>       0.75400003       0.72937999       0.49116997 </v>
  </varray>
 </structure>
 <calculation>
  <scstep>
   <time name="dav">   21.60   21.74</time>
   <time name="total">   21.64   21.79</time>
   <energy>
    <i name="alphaZ">   4402.43523115 </i>
    <i name="ewald"> -40924.70557717 </i>
    <i name="hartreedc">  -8299.69880749 </i>
    <i name="XCdc">   1913.67666082 </i>
    <i name="pawpsdc">  29927.76415367 </i>
    <i name="pawaedc"> -29816.50324896 </i>
    <i name="eentropy">     -0.07943746 </i>
    <i name="bandstr">   1366.26292209 </i>
    <i name="atom">  47647.47844833 </i>
    <i name="e_fr_energy">   6216.63034497 </i>
    <i name="e_wo_entrp">   6216.70978243 </i>
    <i name="e_0_energy">   6216.67006370 </i>
   </energy>
  </scstep>
  <scstep>
   <time name="dav">   22.04   22.58</time>
   <time name="total">   22.04   22.58</time>
   <energy>
    <i name="e_fr_energy">    336.94381049 </i>
    <i name="e_wo_entrp">    337.07499632 </i>
    <i name="e_0_energy">    337.00940341 </i>
   </energy>
  </scstep>
  <scstep>
   <time name="dav">   31.04   31.18</time>
   <time name="total">   31.04   31.18</time>
   <energy>
    <i name="e_fr_energy">   -658.95481329 </i>
    <i name="e_wo_entrp">   -658.86956770 </i>
    <i name="e_0_energy">   -658.91219050 </i>
   </energy>
  </scstep>
  <scstep>
   <time name="dav">   36.66   36.72</time>
   <time name="total">   36.67   36.72</time>
   <energy>
    <i name="e_fr_energy">   -787.54412786 </i>
    <i name="e_wo_entrp">   -787.46203090 </i>
    <i name="e_0_energy">   -787.50307938 </i>
   </energy>
  </scstep>
  <scstep>
   <time name="dav">   38.43   38.54</time>
   <time name="total">   38.68   38.79</time>
   <energy>
    <i name="e_fr_energy">   -798.51699603 </i>
    <i name="e_wo_entrp">   -798.43181859 </i>
    <i name="e_0_energy">   -798.47440731 </i>
   </energy>
  </scstep>
  <scstep>
   <time name="diag">    1.81    1.85</time>
   <time name="diis">   19.86   20.52</time>
   <time name="orth">    0.45    0.46</time>
   <time name="total">   22.42   23.14</time>
   <energy>
    <i name="e_fr_energy">  -1001.06270243 </i>
    <i name="e_wo_entrp">  -1000.79429549 </i>
    <i name="e_0_energy">  -1000.92849896 </i>
   </energy>
  </scstep>
  <scstep>
   <time name="diag">    1.84    1.84</time>
   <time name="diis">   23.77   23.81</time>
   <time name="orth">    0.43    0.43</time>
   <time name="total">   26.32   26.37</time>
   <energy>
    <i name="e_fr_energy">   -649.27948361 </i>
    <i name="e_wo_entrp">   -649.14113025 </i>
    <i name="e_0_energy">   -649.21030693 </i>
   </energy>
  </scstep>
  <scstep>
   <time name="diag">    1.88    1.89</time>
   <time name="diis">   23.51   23.54</time>
   <time name="orth">    0.43    0.43</time>
   <time name="total">   26.12   26.15</time>
   <energy>
    <i name="e_fr_energy">   -645.52789811 </i>
    <i name="e_wo_entrp">   -645.36617657 </i>
    <i name="e_0_energy">   -645.44703734 </i>
   </energy>
  </scstep>
  <scstep>
   <time name="diag">    1.81    1.85</time>
   <time name="diis">   22.74   23.17</time>
   <time name="orth">    0.43    0.43</time>
   <time name="total">   25.27   25.75</time>
   <energy>
    <i name="e_fr_energy">   -642.40581441 </i>
    <i name="e_wo_entrp">   -642.25891600 </i>
    <i name="e_0_energy">   -642.33236520 </i>
   </energy>
  </scstep>
  <scstep>
   <time name="diag">    1.84    1.84</time>
   <time name="diis">   22.49   22.53</time>
   <time name="orth">    0.43    0.44</time>
   <time name="total">   25.04   25.11</time>
   <energy>
    <i name="e_fr_energy">   -637.54353556 </i>
    <i name="e_wo_entrp">   -637.40532926 </i>
    <i name="e_0_energy">   -637.47443241 </i>
   </energy>
  </scstep>
  <scstep>
   <time name="diag">    1.80    1.85</time>
   <time name="diis">   22.42   23.22</time>
   <time name="orth">    0.43    0.43</time>
   <time name="total">   24.94   25.80</time>
   <energy>
    <i name="e_fr_energy">   -640.64314483 </i>
    <i name="e_wo_entrp">   -640.50952609 </i>
    <i name="e_0_energy">   -640.57633546 </i>
   </energy>
  </scstep>
  <scstep>
   <time name="diag">    1.85    1.86</time>
   <time name="diis">   22.42   22.49</time>
   <time name="orth">    0.43    0.44</time>
   <time name="total">   24.99   25.07</time>
   <energy>
    <i name="e_fr_energy">   -637.29486798 </i>
    <i name="e_wo_entrp">   -637.13741172 </i>
    <i name="e_0_energy">   -637.21613985 </i>
   </energy>
  </scstep>
  <scstep>
   <time name="diag">    1.80    1.84</time>
   <time name="diis">   22.53   22.91</time>
   <time name="orth">    0.44    0.44</time>
   <time name="total">   25.05   25.47</time>
   <energy>
    <i name="e_fr_energy">   -637.66296093 </i>
    <i name="e_wo_entrp">   -637.48987297 </i>
    <i name="e_0_energy">   -637.57641695 </i>
   </energy>
  </scstep>
  <scstep>
   <time name="diag">    1.87    1.87</time>
   <time name="diis">   23.46   23.55</time>
   <time name="orth">    0.43    0.43</time>
   <time name="total">   26.05   26.14</time>
   <energy>
    <i name="e_fr_energy">   -636.76598602 </i>
    <i name="e_wo_entrp">   -636.58713465 </i>
    <i name="e_0_energy">   -636.67656033 </i>
   </energy>
  </scstep>
  <scstep>
   <time name="diag">    1.85    1.86</time>
   <time name="diis">   22.14   22.20</time>
   <time name="orth">    0.43    0.43</time>
   <time name="total">   24.71   24.78</time>
   <energy>
    <i name="e_fr_energy">   -637.14627234 </i>
    <i name="e_wo_entrp">   -636.98246830 </i>
    <i name="e_0_energy">   -637.06437032 </i>
   </energy>
  </scstep>
  <scstep>
   <time name="diag">    1.81    1.85</time>
   <time name="diis">   22.92   23.43</time>
   <time name="orth">    0.43    0.43</time>
   <time name="total">   25.45   26.00</time>
   <energy>
    <i name="e_fr_energy">   -636.45007584 </i>
    <i name="e_wo_entrp">   -636.26863722 </i>
    <i name="e_0_energy">   -636.35935653 </i>
   </energy>
  </scstep>
  <scstep>
   <time name="diag">    1.81    1.85</time>
   <time name="diis">   22.63   23.38</time>
   <time name="orth">    0.43    0.43</time>
   <time name="total">   25.15   25.96</time>
   <energy>
    <i name="e_fr_energy">   -636.58182514 </i>
    <i name="e_wo_entrp">   -636.41208684 </i>
    <i name="e_0_energy">   -636.49695599 </i>
   </energy>
  </scstep>
  <scstep>
   <time name="diag">    1.86    1.87</time>
   <time name="diis">   23.36   23.41</time>
   <time name="orth">    0.45    0.45</time>
   <time name="total">   25.96   26.03</time>
   <energy>
    <i name="e_fr_energy">   -636.34885300 </i>
    <i name="e_wo_entrp">   -636.16643815 </i>
    <i name="e_0_energy">   -636.25764558 </i>
   </energy>
  </scstep>
  <scstep>
   <time name="diag">    1.84    1.85</time>
   <time name="diis">   22.82   22.91</time>
   <time name="orth">    0.43    0.43</time>
   <time name="total">   25.37   25.47</time>
   <energy>
    <i name="e_fr_energy">   -636.35032607 </i>
    <i name="e_wo_entrp">   -636.16828870 </i>
    <i name="e_0_energy">   -636.25930739 </i>
   </energy>
  </scstep>
  <scstep>
   <time name="diag">    1.81    1.85</time>
   <time name="diis">   22.08   22.82</time>
   <time name="orth">    0.43    0.43</time>
   <time name="total">   24.61   25.40</time>
   <energy>
    <i name="e_fr_energy">   -636.34470936 </i>
    <i name="e_wo_entrp">   -636.16249746 </i>
    <i name="e_0_energy">   -636.25360341 </i>
   </energy>
  </scstep>
  <scstep>
   <time name="diag">    1.83    1.87</time>
   <time name="diis">   22.46   23.22</time>
   <time name="orth">    0.43    0.44</time>
   <time name="total">   25.01   25.82</time>
   <energy>
    <i name="e_fr_energy">   -636.34121069 </i>
    <i name="e_wo_entrp">   -636.15839909 </i>
    <i name="e_0_energy">   -636.24980489 </i>
   </energy>
  </scstep>
  <scstep>
   <time name="diag">    1.82    1.85</time>
   <time name="diis">   22.95   22.98</time>
   <time name="orth">    0.43    0.43</time>
   <time name="total">   25.50   25.55</time>
   <energy>
    <i name="e_fr_energy">   -636.34269095 </i>
    <i name="e_wo_entrp">   -636.15974357 </i>
    <i name="e_0_energy">   -636.25121726 </i>
   </energy>
  </scstep>
  <scstep>
   <time name="diag">    1.83    1.84</time>
   <time name="diis">   21.82   21.95</time>
   <time name="orth">    0.43    0.43</time>
   <time name="total">   24.38   24.51</time>
   <energy>
    <i name="e_fr_energy">   -636.34408229 </i>
    <i name="e_wo_entrp">   -636.16116174 </i>
    <i name="e_0_energy">   -636.25262202 </i>
   </energy>
  </scstep>
  <scstep>
   <time name="diag">    1.83    1.84</time>
   <time name="diis">   20.61   20.67</time>
   <time name="orth">    0.43    0.43</time>
   <time name="total">   23.17   23.23</time>
   <energy>
    <i name="e_fr_energy">   -636.34498778 </i>
    <i name="e_wo_entrp">   -636.16211175 </i>
    <i name="e_0_energy">   -636.25354976 </i>
   </energy>
  </scstep>
  <scstep>
   <time name="diag">    1.84    1.84</time>
   <time name="diis">   20.50   20.60</time>
   <time name="orth">    0.45    0.45</time>
   <time name="total">   23.08   23.20</time>
   <energy>
    <i name="e_fr_energy">   -636.34565276 </i>
    <i name="e_wo_entrp">   -636.16287109 </i>
    <i name="e_0_energy">   -636.25426192 </i>
   </energy>
  </scstep>
  <scstep>
   <time name="diag">    1.89    1.92</time>
   <time name="diis">   19.47   19.55</time>
   <time name="orth">    0.43    0.43</time>
   <time name="total">   22.08   22.20</time>
   <energy>
    <i name="e_fr_energy">   -636.34603635 </i>
    <i name="e_wo_entrp">   -636.16319850 </i>
    <i name="e_0_energy">   -636.25461743 </i>
   </energy>
  </scstep>
  <scstep>
   <time name="diag">    1.83    1.83</time>
   <time name="diis">   19.01   19.05</time>
   <time name="orth">    0.43    0.43</time>
   <time name="total">   21.56   21.61</time>
   <energy>
    <i name="e_fr_energy">   -636.34631326 </i>
    <i name="e_wo_entrp">   -636.16346159 </i>
    <i name="e_0_energy">   -636.25488743 </i>
   </energy>
  </scstep>
  <scstep>
   <time name="diag">    1.81    1.85</time>
   <time name="diis">   18.61   19.18</time>
   <time name="orth">    0.46    0.50</time>
   <time name="total">   21.18   21.83</time>
   <energy>
    <i name="e_fr_energy">   -636.34651297 </i>
    <i name="e_wo_entrp">   -636.16366572 </i>
    <i name="e_0_energy">   -636.25508935 </i>
   </energy>
  </scstep>
  <scstep>
   <time name="diag">    1.87    1.89</time>
   <time name="diis">   18.38   18.41</time>
   <time name="orth">    0.45    0.46</time>
   <time name="total">   21.00   21.06</time>
   <energy>
    <i name="e_fr_energy">   -636.34663970 </i>
    <i name="e_wo_entrp">   -636.16379135 </i>
    <i name="e_0_energy">   -636.25521552 </i>
   </energy>
  </scstep>
  <scstep>
   <time name="diag">    1.84    1.84</time>
   <time name="diis">   18.70   18.72</time>
   <time name="orth">    0.43    0.43</time>
   <time name="total">   21.27   21.29</time>
   <energy>
    <i name="e_fr_energy">   -636.34673252 </i>
    <i name="e_wo_entrp">   -636.16389105 </i>
    <i name="e_0_energy">   -636.25531179 </i>
   </energy>
  </scstep>
  <scstep>
   <time name="diag">    1.84    1.85</time>
   <time name="diis">   18.05   18.11</time>
   <time name="orth">    0.43    0.44</time>
   <time name="total">   20.62   20.68</time>
   <energy>
    <i name="e_fr_energy">   -636.34679148 </i>
    <i name="e_wo_entrp">   -636.16395079 </i>
    <i name="e_0_energy">   -636.25537114 </i>
   </energy>
  </scstep>
  <scstep>
   <time name="diag">    1.85    1.86</time>
   <time name="diis">   18.01   18.03</time>
   <time name="orth">    0.43    0.43</time>
   <time name="total">   20.58   20.60</time>
   <energy>
    <i name="e_fr_energy">   -636.34683206 </i>
    <i name="e_wo_entrp">   -636.16399250 </i>
    <i name="e_0_energy">   -636.25541228 </i>
   </energy>
  </scstep>
  <scstep>
   <time name="diag">    1.80    1.84</time>
   <time name="diis">   16.80   17.37</time>
   <time name="orth">    0.43    0.43</time>
   <time name="total">   19.31   19.94</time>
   <energy>
    <i name="e_fr_energy">   -636.34686006 </i>
    <i name="e_wo_entrp">   -636.16401882 </i>
    <i name="e_0_energy">   -636.25543944 </i>
   </energy>
  </scstep>
  <scstep>
   <time name="diag">    1.84    1.84</time>
   <time name="diis">   17.27   17.33</time>
   <time name="orth">    0.46    0.46</time>
   <time name="total">   19.86   19.93</time>
   <energy>
    <i name="e_fr_energy">   -636.34687846 </i>
    <i name="e_wo_entrp">   -636.16403786 </i>
    <i name="e_0_energy">   -636.25545816 </i>
   </energy>
  </scstep>
  <scstep>
   <time name="diag">    1.81    1.84</time>
   <time name="diis">   16.29   16.35</time>
   <time name="orth">    0.43    0.43</time>
   <time name="total">   18.83   18.92</time>
   <energy>
    <i name="e_fr_energy">   -636.34689033 </i>
    <i name="e_wo_entrp">   -636.16405023 </i>
    <i name="e_0_energy">   -636.25547028 </i>
   </energy>
  </scstep>
  <scstep>
   <time name="diag">    1.80    1.84</time>
   <time name="diis">   15.18   15.68</time>
   <time name="orth">    0.43    0.44</time>
   <time name="total">   17.44   17.99</time>
   <energy>
    <i name="alphaZ">   4402.43523115 </i>
    <i name="ewald"> -40924.70557717 </i>
    <i name="hartreedc">  -7758.08421110 </i>
    <i name="XCdc">   1901.74164086 </i>
    <i name="pawpsdc">  31344.59261000 </i>
    <i name="pawaedc"> -31268.98012449 </i>
    <i name="eentropy">     -0.18284016 </i>
    <i name="bandstr">  -5980.64207514 </i>
    <i name="atom">  47647.47844833 </i>
    <i name="e_fr_energy">   -636.34689772 </i>
    <i name="e_wo_entrp">   -636.16405756 </i>
    <i name="e_0_energy">   -636.25547764 </i>
   </energy>
  </scstep>
  <structure>
   <crystal>
    <varray name="basis" >
     <v>       8.93249989       0.00000000       0.00000000 </v>
     <v>       0.00575300       9.05559834       0.00000000 </v>
     <v>       0.03210180      -0.01574346       8.93712807 </v>
    </varray>
    <i name="volume">    722.91652451 </i>
    <varray name="rec_basis" >
     <v>       0.11195074      -0.00007112      -0.00040225 </v>
     <v>       0.00000000       0.11042893       0.00019453 </v>
     <v>       0.00000000       0.00000000       0.11189277 </v>
    </varray>
   </crystal>
   <varray name="positions" >
    <v>       0.99688001       0.99204997       0.99924002 </v>
    <v>       0.25398003       0.99714995       0.24912000 </v>
    <v>       0.24803003       0.50165000       0.24955001 </v>
    <v>       0.50501006       0.49745998       0.99834003 </v>
    <v>       0.50479003       0.24631001       0.74710002 </v>
    <v>       0.99427992       0.50449999       0.49779000 </v>
    <v>       0.49950005       0.75481999       0.74817004 </v>
    <v>       0.99437004       0.23617001       0.26379999 </v>
    <v>       0.75718000       0.74102998       0.01100000 </v>
    <v>       0.00201000       0.25541000       0.73894001 </v>
    <v>       0.75307001       0.26163001       0.50533002 </v>
    <v>       0.99514004       0.74492004       0.74511997 </v>
    <v>       0.25679999       0.49462002       0.74545002 </v>
    <v>       0.24788999       0.24839000       0.99657997 </v>
    <v>       0.50833000       0.25676999       0.25376001 </v>
    <v>       0.74879004       0.98787999       0.26967001 </v>
    <v>       0.75719000       0.25603001       0.99591997 </v>
    <v>       0.24762001       0.74973999       0.99974006 </v>
    <v>       0.25272001       0.24823001       0.50015003 </v>
    <v>       0.24457999       0.75048999       0.49983999 </v>
    <v>       0.24982001       0.24942998       0.24825000 </v>
    <v>       0.26146999       0.99984002       0.99295996 </v>
    <v>       0.00281000       0.25024000       0.00130000 </v>
    <v>       0.75313998       0.24617000       0.25492002 </v>
    <v>       0.74767001       0.99748000       0.01202000 </v>
    <v>       0.50714994       0.99977000       0.24673000 </v>
    <v>       0.99051999       0.48088002       0.24100998 </v>
    <v>       0.50519005       0.76130999       0.00855000 </v>
    <v>       0.98896989       0.00202000       0.73708999 </v>
    <v>       0.75744996       0.24437997       0.74896999 </v>
    <v>       0.73632001       0.00417000       0.51063000 </v>
    <v>       0.50563996       0.23264999       0.49544997 </v>
    <v>       0.50008998       0.00061000       0.73471998 </v>
    <v>       0.99720000       0.99771992       0.25899999 </v>
    <v>       0.50427997       0.24673000       0.00262000 </v>
    <v>       0.25133999       0.74958002       0.24910999 </v>
    <v>       0.24328000       0.50072997       0.99510994 </v>
    <v>       0.99837005       0.74313996       0.00460000 </v>
    <v>       0.75633000       0.73891003       0.25767000 </v>
    <v>       0.75839004       0.50315998       0.00288000 </v>
    <v>       0.50700002       0.50333002       0.25878999 </v>
    <v>       0.24900999       0.25315000       0.74854000 </v>
    <v>       0.24446000       0.99823996       0.50287998 </v>
    <v>       0.99804009       0.24229999       0.50128003 </v>
    <v>       0.24177002       0.75340997       0.75018002 </v>
    <v>       0.25841001       0.50062002       0.50129001 </v>
    <v>       0.99000004       0.76215003       0.49746000 </v>
    <v>       0.99203996       0.50055999       0.75138002 </v>
    <v>       0.75036005       0.74888000       0.74756004 </v>
    <v>       0.74036002       0.50197000       0.50067003 </v>
    <v>       0.50575006       0.74958002       0.49720000 </v>
    <v>       0.50501003       0.50217998       0.73912003 </v>
    <v>       0.51588997       0.01358000       0.98075008 </v>
    <v>       0.99841994       0.50976998       0.98613004 </v>
    <v>       0.50379003       0.73926997       0.25905001 </v>
    <v>       0.23780002       0.01082000       0.74607998 </v>
    <v>       0.47957999       0.98308000       0.49717999 </v>
    <v>       0.74279003       0.97869994       0.76450995 </v>
    <v>       0.99864998       0.77573999       0.26102000 </v>
    <v>       0.73551001       0.51468004       0.26666001 </v>
    <v>       0.02362000       0.99783001       0.49557002 </v>
    <v>       0.50539000       0.52833005       0.49917999 </v>
    <v>       0.73876003       0.52828003       0.73814999 </v>
    <v>       0.75400003       0.72937999       0.49116997 </v>
   </varray>
  </structure>
  <varray name="forces" >
   <v>       0.07409120       0.82184573      -1.13161516 </v>
   <v>       2.93822177       0.47064248      -0.76599351 </v>
   <v>      -0.37404271      -0.38002770      -0.41633631 </v>
   <v>      -0.57378521       0.17847945       0.66560859 </v>
   <v>      -0.05843879      -1.67512084      -0.06074429 </v>
   <v>       1.66200881      -0.56590918      -0.22298524 </v>
   <v>      -1.13400263       2.53295690       0.94373865 </v>
   <v>       0.50569591       1.99152625      -2.87170983 </v>
   <v>      -1.77608005       1.72299673      -0.34728022 </v>
   <v>      -0.39234007      -1.29709159       2.89631253 </v>
   <v>      -1.81347102      -2.68054616      -0.23130713 </v>
   <v>       1.27104099       1.82258247       0.91132007 </v>
   <v>      -1.32827568       1.02622634       0.60382488 </v>
   <v>       0.12801964       0.01700143      -0.30095215 </v>
   <v>      -0.17062929      -0.88129456      -0.19663290 </v>
   <v>      -1.97418818       0.11444378       0.08161687 </v>
   <v>      -0.31515373      -0.16340119       0.07592276 </v>
   <v>       0.18066025      -0.23993647      -0.29171106 </v>
   <v>       0.69336654      -0.19499606       0.16269069 </v>
   <v>       0.79247493       0.17472091       0.16657712 </v>
   <v>       0.35347667      -0.02743957       0.08751594 </v>
   <v>      -0.19426583       0.21109181      -0.36148455 </v>
   <v>      -0.32289639      -0.09976955      -0.31617735 </v>
   <v>      -0.90851830      -0.00149650      -0.38038126 </v>
   <v>      -0.77975316       0.51701136      -0.85340286 </v>
   <v>       0.55152541       0.02794430       0.55727736 </v>
   <v>       0.24849981       0.97464373       0.28549397 </v>
   <v>      -0.61982288      -0.09421358      -0.15496065 </v>
   <v>       0.37908541      -0.07158518       0.53726881 </v>
   <v>      -0.38848434       0.36577233       0.79500203 </v>
   <v>       0.19111294      -0.59039654      -0.94623217 </v>
   <v>      -0.66284991       0.48350351      -0.54861198 </v>
   <v>       0.40182610       0.01272135       0.54958078 </v>
   <v>      -0.52863575       0.63510686      -0.86861895 </v>
   <v>       0.35494744      -0.83667267       0.39293732 </v>
   <v>      -0.10698341      -0.01403338      -0.04249218 </v>
   <v>      -0.24721547       0.11866547       0.52362328 </v>
   <v>       1.35847780      -0.22790780      -0.10699691 </v>
   <v>      -0.71396239       2.23187945      -0.72186580 </v>
   <v>       0.33428174      -1.44985730      -0.19173537 </v>
   <v>      -1.32476904      -0.50936408      -0.79962287 </v>
   <v>       0.25798479      -1.29350083      -0.07836812 </v>
   <v>       2.98772764       0.04026660       0.73914421 </v>
   <v>       0.93360576       0.38572380      -0.17449194 </v>
   <v>       0.59832946       0.38016069       0.16184136 </v>
   <v>      -0.24882511       0.06414622      -0.73652244 </v>
   <v>       1.45440886      -0.74246436       0.22422125 </v>
   <v>       0.33751548       0.01502319       0.80319276 </v>
   <v>      -0.37761316       1.93173773       0.51038514 </v>
   <v>       0.87762793      -0.64867287       0.22127213 </v>
   <v>      -1.22055988       2.36650973      -0.89702068 </v>
   <v>      -0.47168099      -0.09186859       0.81333533 </v>
   <v>       0.63120841       0.35312164      -0.01704163 </v>
   <v>       0.12731487      -0.12004095      -0.36863214 </v>
   <v>      -0.26677138       0.76551577      -0.11588331 </v>
   <v>       0.66379401      -0.31520099      -0.08496712 </v>
   <v>      -0.30957126      -0.20976606       0.21603120 </v>
   <v>      -0.69287809      -0.09698430       0.06718666 </v>
   <v>       1.19112942      -4.16457638      -1.65872214 </v>
   <v>       2.59211066      -2.70935138      -2.86321892 </v>
   <v>      -2.97066913       0.68103038       2.93668870 </v>
   <v>      -2.90075481      -2.79429506      -0.26454680 </v>
   <v>       2.12805080      -3.64579316       2.12483323 </v>
   <v>      -1.03173340       5.39857644       1.33482234 </v>
  </varray>
  <varray name="stress" >
   <v>     -22.57155150       8.35912527      -6.07244473 </v>
   <v>       8.35912707     -25.66636549      -0.94959275 </v>
   <v>      -6.07244427      -0.94959280     -19.96352604 </v>
  </varray>
  <energy>
   <i name="e_fr_energy">   -636.34689772 </i>
   <i name="e_wo_entrp">   -636.25547764 </i>
   <i name="e_0_energy">     -0.18284016 </i>
  </energy>
  <time name="totalsc">  917.07  926.92</time>
 </calculation>
 <calculation>
  <scstep>
   <time name="dav">   21.71   22.31</time>
   <time name="total">   22.01   22.62</time>
   <energy>
    <i name="alphaZ">   4506.21742581 </i>
    <i name="ewald"> -41147.24501056 </i>
    <i name="hartreedc">  -7925.21817360 </i>
    <i name="XCdc">   1916.12901001 </i>
    <i name="pawpsdc">  31344.54144823 </i>
    <i name="pawaedc"> -31268.96368644 </i>
    <i name="eentropy">     -0.14393636 </i>
    <i name="bandstr">  -5692.93679477 </i>
    <i name="atom">  47647.47844833 </i>
    <i name="e_fr_energy">   -620.14126936 </i>
    <i name="e_wo_entrp">   -619.99733300 </i>
    <i name="e_0_energy">   -620.06930118 </i>
   </energy>
  </scstep>
  <scstep>
   <time name="diag">    1.83    1.83</time>
   <time name="diis">   23.30   23.41</time>
   <time name="orth">    0.43    0.43</time>
   <time name="total">   25.85   25.96</time>
   <energy>
    <i name="e_fr_energy">   -649.65355081 </i>
    <i name="e_wo_entrp">   -649.52765435 </i>
    <i name="e_0_energy">   -649.59060258 </i>
   </energy>
  </scstep>
  <scstep>
   <time name="diag">    1.83    1.83</time>
   <time name="diis">   20.89   20.90</time>
   <time name="orth">    0.43    0.43</time>
   <time name="total">   23.43   23.45</time>
   <energy>
    <i name="e_fr_energy">   -642.76670675 </i>
    <i name="e_wo_entrp">   -642.63762358 </i>
    <i name="e_0_energy">   -642.70216517 </i>
   </energy>
  </scstep>
  <scstep>
   <time name="diag">    1.82    1.83</time>
   <time name="diis">   22.85   22.90</time>
   <time name="orth">    0.43    0.43</time>
   <time name="total">   25.39   25.45</time>
   <energy>
    <i name="e_fr_energy">   -644.20641897 </i>
    <i name="e_wo_entrp">   -644.06144489 </i>
    <i name="e_0_energy">   -644.13393193 </i>
   </energy>
  </scstep>
  <scstep>
   <time name="diag">    1.83    1.84</time>
   <time name="diis">   22.64   22.70</time>
   <time name="orth">    0.43    0.43</time>
   <time name="total">   25.19   25.25</time>
   <energy>
    <i name="e_fr_energy">   -641.95000760 </i>
    <i name="e_wo_entrp">   -641.79114055 </i>
    <i name="e_0_energy">   -641.87057408 </i>
   </energy>
  </scstep>
  <scstep>
   <time name="diag">    1.80    1.84</time>
   <time name="diis">   22.65   23.39</time>
   <time name="orth">    0.43    0.43</time>
   <time name="total">   25.15   25.96</time>
   <energy>
    <i name="e_fr_energy">   -642.39161894 </i>
    <i name="e_wo_entrp">   -642.25291577 </i>
    <i name="e_0_energy">   -642.32226735 </i>
   </energy>
  </scstep>
  <scstep>
   <time name="diag">    1.89    1.95</time>
   <time name="diis">   23.01   23.77</time>
   <time name="orth">    0.44    0.45</time>
   <time name="total">   25.63   26.46</time>
   <energy>
    <i name="e_fr_energy">   -641.95188816 </i>
    <i name="e_wo_entrp">   -641.78956372 </i>
    <i name="e_0_energy">   -641.87072594 </i>
   </energy>
  </scstep>
  <scstep>
   <time name="diag">    1.83    1.87</time>
   <time name="diis">   23.21   23.50</time>
   <time name="orth">    0.43    0.43</time>
   <time name="total">   25.75   26.09</time>
   <energy>
    <i name="e_fr_energy">   -642.07436877 </i>
    <i name="e_wo_entrp">   -641.91146031 </i>
    <i name="e_0_energy">   -641.99291454 </i>
   </energy>
  </scstep>
  <scstep>
   <time name="diag">    1.81    1.85</time>
   <time name="diis">   22.73   23.49</time>
   <time name="orth">    0.43    0.43</time>
   <time name="total">   25.26   26.07</time>
   <energy>
    <i name="e_fr_energy">   -641.77994376 </i>
    <i name="e_wo_entrp">   -641.61860282 </i>
    <i name="e_0_energy">   -641.69927329 </i>
   </energy>
  </scstep>
  <scstep>
   <time name="diag">    1.80    1.84</time>
   <time name="diis">   23.67   24.43</time>
   <time name="orth">    0.43    0.43</time>
   <time name="total">   26.18   27.00</time>
   <energy>
    <i name="e_fr_energy">   -641.69353461 </i>
    <i name="e_wo_entrp">   -641.53385614 </i>
    <i name="e_0_energy">   -641.61369537 </i>
   </energy>
  </scstep>
  <scstep>
   <time name="diag">    1.80    1.84</time>
   <time name="diis">   23.36   23.82</time>
   <time name="orth">    0.45    0.45</time>
   <time name="total">   25.91   26.43</time>
   <energy>
    <i name="e_fr_energy">   -641.70398668 </i>
    <i name="e_wo_entrp">   -641.53481502 </i>
    <i name="e_0_energy">   -641.61940085 </i>
   </energy>
  </scstep>
  <scstep>
   <time name="diag">    1.82    1.83</time>
   <time name="diis">   23.21   23.28</time>
   <time name="orth">    0.43    0.43</time>
   <time name="total">   25.75   25.84</time>
   <energy>
    <i name="e_fr_energy">   -641.67509669 </i>
    <i name="e_wo_entrp">   -641.51058281 </i>
    <i name="e_0_energy">   -641.59283975 </i>
   </energy>
  </scstep>
  <scstep>
   <time name="diag">    1.80    1.84</time>
   <time name="diis">   23.23   24.00</time>
   <time name="orth">    0.43    0.43</time>
   <time name="total">   25.75   26.57</time>
   <energy>
    <i name="e_fr_energy">   -641.67659035 </i>
    <i name="e_wo_entrp">   -641.51137200 </i>
    <i name="e_0_energy">   -641.59398117 </i>
   </energy>
  </scstep>
  <scstep>
   <time name="diag">    1.87    1.88</time>
   <time name="diis">   23.53   23.57</time>
   <time name="orth">    0.43    0.43</time>
   <time name="total">   26.12   26.17</time>
   <energy>
    <i name="e_fr_energy">   -641.67797036 </i>
    <i name="e_wo_entrp">   -641.51318327 </i>
    <i name="e_0_energy">   -641.59557682 </i>
   </energy>
  </scstep>
  <scstep>
   <time name="diag">    1.80    1.84</time>
   <time name="diis">   23.08   23.39</time>
   <time name="orth">    0.44    0.44</time>
   <time name="total">   25.60   25.97</time>
   <energy>
    <i name="e_fr_energy">   -641.67903014 </i>
    <i name="e_wo_entrp">   -641.51426537 </i>
    <i name="e_0_energy">   -641.59664776 </i>
   </energy>
  </scstep>
  <scstep>
   <time name="diag">    1.84    1.88</time>
   <time name="diis">   23.73   23.82</time>
   <time name="orth">    0.43    0.43</time>
   <time name="total">   26.29   26.43</time>
   <energy>
    <i name="e_fr_energy">   -641.68046133 </i>
    <i name="e_wo_entrp">   -641.51579810 </i>
    <i name="e_0_energy">   -641.59812972 </i>
   </energy>
  </scstep>
  <scstep>
   <time name="diag">    1.80    1.84</time>
   <time name="diis">   21.27   21.97</time>
   <time name="orth">    0.43    0.44</time>
   <time name="total">   23.79   24.55</time>
   <energy>
    <i name="e_fr_energy">   -641.68067163 </i>
    <i name="e_wo_entrp">   -641.51599705 </i>
    <i name="e_0_energy">   -641.59833434 </i>
   </energy>
  </scstep>
  <scstep>
   <time name="diag">    1.80    1.84</time>
   <time name="diis">   21.53   22.24</time>
   <time name="orth">    0.44    0.45</time>
   <time name="total">   24.07   24.84</time>
   <energy>
    <i name="e_fr_energy">   -641.68082030 </i>
    <i name="e_wo_entrp">   -641.51617461 </i>
    <i name="e_0_energy">   -641.59849745 </i>
   </energy>
  </scstep>
  <scstep>
   <time name="diag">    1.83    1.83</time>
   <time name="diis">   20.11   20.15</time>
   <time name="orth">    0.43    0.43</time>
   <time name="total">   22.66   22.70</time>
   <energy>
    <i name="e_fr_energy">   -641.68099839 </i>
    <i name="e_wo_entrp">   -641.51632090 </i>
    <i name="e_0_energy">   -641.59865965 </i>
   </energy>
  </scstep>
  <scstep>
   <time name="diag">    1.79    1.83</time>
   <time name="diis">   18.78   18.92</time>
   <time name="orth">    0.44    0.44</time>
   <time name="total">   21.30   21.49</time>
   <energy>
    <i name="e_fr_energy">   -641.68108732 </i>
    <i name="e_wo_entrp">   -641.51640771 </i>
    <i name="e_0_energy">   -641.59874751 </i>
   </energy>
  </scstep>
  <scstep>
   <time name="diag">    1.85    1.87</time>
   <time name="diis">   18.78   18.84</time>
   <time name="orth">    0.43    0.43</time>
   <time name="total">   21.35   21.43</time>
   <energy>
    <i name="e_fr_energy">   -641.68113687 </i>
    <i name="e_wo_entrp">   -641.51647350 </i>
    <i name="e_0_energy">   -641.59880518 </i>
   </energy>
  </scstep>
  <scstep>
   <time name="diag">    1.79    1.83</time>
   <time name="diis">   18.64   18.65</time>
   <time name="orth">    0.43    0.44</time>
   <time name="total">   21.15   21.22</time>
   <energy>
    <i name="e_fr_energy">   -641.68118021 </i>
    <i name="e_wo_entrp">   -641.51651953 </i>
    <i name="e_0_energy">   -641.59884987 </i>
   </energy>
  </scstep>
  <scstep>
   <time name="diag">    1.81    1.82</time>
   <time name="diis">   18.05   18.11</time>
   <time name="orth">    0.46    0.46</time>
   <time name="total">   20.60   20.67</time>
   <energy>
    <i name="e_fr_energy">   -641.68120534 </i>
    <i name="e_wo_entrp">   -641.51654553 </i>
    <i name="e_0_energy">   -641.59887543 </i>
   </energy>
  </scstep>
  <scstep>
   <time name="diag">    1.90    1.91</time>
   <time name="diis">   18.01   18.09</time>
   <time name="orth">    0.43    0.43</time>
   <time name="total">   20.63   20.73</time>
   <energy>
    <i name="e_fr_energy">   -641.68122188 </i>
    <i name="e_wo_entrp">   -641.51656147 </i>
    <i name="e_0_energy">   -641.59889167 </i>
   </energy>
  </scstep>
  <scstep>
   <time name="diag">    1.79    1.83</time>
   <time name="diis">   16.09   16.62</time>
   <time name="orth">    0.43    0.43</time>
   <time name="total">   18.60   19.19</time>
   <energy>
    <i name="e_fr_energy">   -641.68123247 </i>
    <i name="e_wo_entrp">   -641.51657100 </i>
    <i name="e_0_energy">   -641.59890174 </i>
   </energy>
  </scstep>
  <scstep>
   <time name="diag">    1.82    1.82</time>
   <time name="diis">   15.51   15.55</time>
   <time name="orth">    0.43    0.43</time>
   <time name="total">   17.79   17.84</time>
   <energy>
    <i name="alphaZ">   4506.21742581 </i>
    <i name="ewald"> -41147.24501056 </i>
    <i name="hartreedc">  -7773.93404349 </i>
    <i name="XCdc">   1906.61678243 </i>
    <i name="pawpsdc">  31515.79458402 </i>
    <i name="pawaedc"> -31434.25777748 </i>
    <i name="eentropy">     -0.16466021 </i>
    <i name="bandstr">  -5862.18698766 </i>
    <i name="atom">  47647.47844833 </i>
    <i name="e_fr_energy">   -641.68123880 </i>
    <i name="e_wo_entrp">   -641.51657860 </i>
    <i name="e_0_energy">   -641.59890870 </i>
   </energy>
  </scstep>
  <structure>
   <crystal>
    <varray name="basis" >
     <v>       8.86392530       0.02539584      -0.01844868 </v>
     <v>       0.03145466       8.97656316      -0.00293660 </v>
     <v>       0.01335236      -0.01840121       8.87638428 </v>
    </varray>
    <i name="volume">    706.26711406 </i>
    <varray name="rec_basis" >
     <v>       0.11281761      -0.00039538      -0.00017053 </v>
     <v>      -0.00031869       0.11140240       0.00023142 </v>
     <v>       0.00023437       0.00003603       0.11265821 </v>
    </varray>
   </crystal>
   <varray name="positions" >
    <v>       0.99729930       0.99641763       0.99313155 </v>
    <v>       0.26986203       0.99965006       0.24498516 </v>
    <v>       0.24601928       0.49962154       0.24730262 </v>
    <v>       0.50189764       0.49841705       0.00193299 </v>
    <v>       0.50448134       0.23738543       0.74677212 </v>
    <v>       0.00326237       0.50148308       0.49658632 </v>
    <v>       0.49334853       0.76832288       0.75326435 </v>
    <v>       0.99715009       0.24675269       0.24829849 </v>
    <v>       0.74758857       0.75020578       0.00912538 </v>
    <v>      -0.00016070       0.24852708       0.75457432 </v>
    <v>       0.74328950       0.24734754       0.50408142 </v>
    <v>       0.00198075       0.75463819       0.75003928 </v>
    <v>       0.24961100       0.50009279       0.74870947 </v>
    <v>       0.24858718       0.24847774       0.99495543 </v>
    <v>       0.50741531       0.25207315       0.25269858 </v>
    <v>       0.73812586       0.98849045       0.27011058 </v>
    <v>       0.75548700       0.25516022       0.99632980 </v>
    <v>       0.24860220       0.74845902       0.99816540 </v>
    <v>       0.25646225       0.24719271       0.50102824 </v>
    <v>       0.24885616       0.75142235       0.50073917 </v>
    <v>       0.25172747       0.24928462       0.24872241 </v>
    <v>       0.26042709       0.00096119       0.99100867 </v>
    <v>       0.00107258       0.24970553      -0.00040673 </v>
    <v>       0.74824064       0.24615845       0.25286672 </v>
    <v>       0.74347351       0.00022631       0.00741333 </v>
    <v>       0.51011771       0.99992409       0.24973819 </v>
    <v>       0.99185321       0.48607501       0.24255108 </v>
    <v>       0.50184584       0.76080662       0.00771352 </v>
    <v>       0.99100707       0.00164368       0.73999017 </v>
    <v>       0.75533515       0.24633604       0.75326141 </v>
    <v>       0.73737256       0.00101585       0.50552224 </v>
    <v>       0.50206902       0.23522065       0.49248856 </v>
    <v>       0.50224945       0.00068293       0.73768662 </v>
    <v>       0.99435962       0.00109523       0.25431118 </v>
    <v>       0.50619222       0.24227641       0.00474108 </v>
    <v>       0.25076306       0.74950486       0.24888062 </v>
    <v>       0.24193427       0.50136706       0.99793646 </v>
    <v>       0.00570977       0.74192481       0.00402243 </v>
    <v>       0.75248038       0.75079333       0.25377336 </v>
    <v>       0.76020412       0.49543423       0.00184501 </v>
    <v>       0.49986247       0.50060893       0.25447362 </v>
    <v>       0.25040927       0.24625829       0.74811697 </v>
    <v>       0.26058164       0.99846141       0.50686988 </v>
    <v>       0.00308437       0.24435326       0.50033812 </v>
    <v>       0.24499703       0.75543675       0.75105364 </v>
    <v>       0.25708022       0.50095484       0.49731426 </v>
    <v>       0.99785320       0.75819674       0.49867035 </v>
    <v>       0.99384718       0.50064756       0.75571565 </v>
    <v>       0.74830411       0.75917590       0.75031510 </v>
    <v>       0.74509784       0.49851635       0.50186445 </v>
    <v>       0.49916734       0.76217891       0.49235788 </v>
    <v>       0.50244711       0.50169820       0.74351042 </v>
    <v>       0.51929812       0.01546105       0.98065809 </v>
    <v>       0.99911511       0.50912702       0.98414016 </v>
    <v>       0.50234887       0.74334708       0.25842447 </v>
    <v>       0.24138777       0.00914001       0.74562133 </v>
    <v>       0.47790459       0.98196453       0.49834613 </v>
    <v>       0.73904696       0.97818389       0.76487262 </v>
    <v>       0.00512951       0.75353813       0.25206621 </v>
    <v>       0.74957434       0.50021941       0.25120434 </v>
    <v>       0.00751668       0.00148568       0.51142228 </v>
    <v>       0.48973832       0.51344129       0.49775197 </v>
    <v>       0.75022449       0.50887742       0.74961985 </v>
    <v>       0.74838342       0.75815281       0.49837535 </v>
   </varray>
  </structure>
  <varray name="forces" >
   <v>       0.29646428      -0.43609789       0.76213153 </v>
   <v>      -0.62875975      -0.24925684      -0.06330172 </v>
   <v>       0.44968658      -0.25378583      -0.45825321 </v>
   <v>      -0.45354570      -0.24351124      -0.24818291 </v>
   <v>      -0.64579594       0.28794674       0.73143765 </v>
   <v>      -0.61705032      -0.30590666       1.44240530 </v>
   <v>       0.10873918      -1.08742962      -0.04927507 </v>
   <v>       0.24638389      -0.93138800      -0.01918013 </v>
   <v>      -0.22285552       0.22028160      -0.59016330 </v>
   <v>       0.30554482       0.13118367      -0.33928003 </v>
   <v>       0.78224006      -0.30724784      -0.30662368 </v>
   <v>      -0.30266269      -0.36109550       0.32158909 </v>
   <v>       0.01198181      -0.21694154       0.48508144 </v>
   <v>       0.80657351      -0.19330830      -0.32733872 </v>
   <v>      -0.30746644       0.14354794      -0.71350070 </v>
   <v>      -0.13729555       0.08602543      -1.17814247 </v>
   <v>      -1.09878835      -0.48639485       0.37053494 </v>
   <v>       0.29849930      -0.02436641       0.08400146 </v>
   <v>      -0.24704661      -0.47470024       0.35770618 </v>
   <v>       0.31698437       0.67427270      -0.13616911 </v>
   <v>       0.14744750      -0.21984096      -0.20704101 </v>
   <v>      -0.02886287       0.20207436      -0.00946863 </v>
   <v>      -0.03732048       0.01896884      -0.03487078 </v>
   <v>      -0.23550621       0.14394808      -0.37869736 </v>
   <v>      -0.38825452       0.44032909      -0.73451061 </v>
   <v>       0.56988457       0.20204108       0.17950439 </v>
   <v>       0.17094130       1.27324915      -0.07313826 </v>
   <v>      -0.58847746       0.16778104      -0.02055854 </v>
   <v>      -0.00449770       0.26475064       0.90352879 </v>
   <v>      -0.12916197       0.45609747       0.28283739 </v>
   <v>       0.79131648      -0.39222159       0.03864439 </v>
   <v>      -0.71218487       0.82739610      -0.17107594 </v>
   <v>       0.37191564       0.43747882       0.50943258 </v>
   <v>       0.03042770      -0.96044069      -0.01849456 </v>
   <v>      -0.08725202      -0.38095869       0.11688980 </v>
   <v>       0.17265452       0.21457282      -0.15094901 </v>
   <v>      -0.05944050      -0.05252434      -0.13033202 </v>
   <v>      -0.18826893       0.24897836      -0.19979099 </v>
   <v>      -0.46779627      -0.18643059       0.58699339 </v>
   <v>       0.03654306      -0.07710584      -0.03578057 </v>
   <v>       0.67606486      -0.32095666       0.01677499 </v>
   <v>      -0.04875326      -0.36052368       0.11769645 </v>
   <v>      -0.91467280       0.17667082       0.33912699 </v>
   <v>      -0.03199666      -0.06636518       0.02505079 </v>
   <v>       0.19091538       0.33398877       0.18865413 </v>
   <v>      -0.46156358      -0.24417527       0.16934019 </v>
   <v>       0.16411636      -0.09918021      -0.16661973 </v>
   <v>       0.38425033       0.03215283       0.14089646 </v>
   <v>       0.17912954      -0.75964381       0.29755010 </v>
   <v>      -0.23023016       0.55938856      -0.42246853 </v>
   <v>      -0.59627882      -0.74481835      -0.04648865 </v>
   <v>       0.14969287      -0.06961081       0.04069450 </v>
   <v>       0.29988480       0.10530500      -0.20863764 </v>
   <v>       0.28873919       0.18325911       0.21838686 </v>
   <v>      -0.19305438      -0.37174794      -0.07198625 </v>
   <v>       0.27701633      -0.22347665      -0.12649854 </v>
   <v>       0.24293173       0.07983357       0.02262648 </v>
   <v>      -0.77943964       0.44268353       0.38187685 </v>
   <v>       0.11552768       0.86228685      -0.24312362 </v>
   <v>      -0.75363746       0.82487186       0.40719031 </v>
   <v>       1.55620986       0.11087656      -1.85072475 </v>
   <v>       1.81068106       0.72495834       0.16063369 </v>
   <v>      -0.43623913       0.84686085       0.06842055 </v>
   <v>      -0.21523200      -0.62260856      -0.03697064 </v>
  </varray>
  <varray name="stress" >
   <v>      10.97116555      -3.75440099       5.89308472 </v>
   <v>      -3.75439939     -39.92263287      -4.38052554 </v>
   <v>       5.89308512      -4.38052665      18.86783160 </v>
  </varray>
  <energy>
   <i name="e_fr_energy">   -641.68123880 </i>
   <i name="e_wo_entrp">   -641.59890870 </i>
   <i name="e_0_energy">     -0.16466021 </i>
  </energy>
  <time name="totalsc">  661.79  671.11</time>
 </calculation>
 <calculation>
  <scstep>
   <time name="dav">   22.15   22.22</time>
   <time name="total">   22.44   22.52</time>
   <energy>
    <i name="alphaZ">   4490.75276383 </i>
    <i name="ewald"> -41145.77050215 </i>
    <i name="hartreedc">  -7721.25844887 </i>
    <i name="XCdc">   1904.29039398 </i>
    <i name="pawpsdc">  31515.76540637 </i>
    <i name="pawaedc"> -31434.26705531 </i>
    <i name="eentropy">     -0.16744721 </i>
    <i name="bandstr">  -5898.18033126 </i>
    <i name="atom">  47647.47844833 </i>
    <i name="e_fr_energy">   -641.35677230 </i>
    <i name="e_wo_entrp">   -641.18932508 </i>
    <i name="e_0_energy">   -641.27304869 </i>
   </energy>
  </scstep>
  <scstep>
   <time name="diag">    1.83    1.83</time>
   <time name="diis">   23.40   23.48</time>
   <time name="orth">    0.43    0.43</time>
   <time name="total">   25.94   26.02</time>
   <energy>
    <i name="e_fr_energy">   -642.18958462 </i>
    <i name="e_wo_entrp">   -642.02598150 </i>
    <i name="e_0_energy">   -642.10778306 </i>
   </energy>
  </scstep>
  <scstep>
   <time name="diag">    1.83    1.83</time>
   <time name="diis">   22.37   22.39</time>
   <time name="orth">    0.43    0.43</time>
   <time name="total">   24.91   24.94</time>
   <energy>
    <i name="e_fr_energy">   -641.87713074 </i>
    <i name="e_wo_entrp">   -641.71003562 </i>
    <i name="e_0_energy">   -641.79358318 </i>
   </energy>
  </scstep>
  <scstep>
   <time name="diag">    1.88    1.89</time>
   <time name="diis">   22.25   22.32</time>
   <time name="orth">    0.43    0.43</time>
   <time name="total">   24.85   24.93</time>
   <energy>
    <i name="e_fr_energy">   -641.85581563 </i>
    <i name="e_wo_entrp">   -641.69005047 </i>
    <i name="e_0_energy">   -641.77293305 </i>
   </energy>
  </scstep>
  <scstep>
   <time name="diag">    1.83    1.83</time>
   <time name="diis">   23.20   23.24</time>
   <time name="orth">    0.43    0.43</time>
   <time name="total">   25.74   25.78</time>
   <energy>
    <i name="e_fr_energy">   -641.84996797 </i>
    <i name="e_wo_entrp">   -641.68564266 </i>
    <i name="e_0_energy">   -641.76780531 </i>
   </energy>
  </scstep>
  <scstep>
   <time name="diag">    1.83    1.83</time>
   <time name="diis">   22.83   22.88</time>
   <time name="orth">    0.43    0.43</time>
   <time name="total">   25.38   25.45</time>
   <energy>
    <i name="e_fr_energy">   -641.82279942 </i>
    <i name="e_wo_entrp">   -641.65530915 </i>
    <i name="e_0_energy">   -641.73905429 </i>
   </energy>
  </scstep>
  <scstep>
   <time name="diag">    1.83    1.84</time>
   <time name="diis">   23.22   23.28</time>
   <time name="orth">    0.43    0.43</time>
   <time name="total">   25.78   25.83</time>
   <energy>
    <i name="e_fr_energy">   -641.83626817 </i>
    <i name="e_wo_entrp">   -641.66793247 </i>
    <i name="e_0_energy">   -641.75210032 </i>
   </energy>
  </scstep>
  <scstep>
   <time name="diag">    1.84    1.84</time>
   <time name="diis">   22.26   22.32</time>
   <time name="orth">    0.43    0.43</time>
   <time name="total">   24.81   24.88</time>
   <energy>
    <i name="e_fr_energy">   -641.82218763 </i>
    <i name="e_wo_entrp">   -641.65570345 </i>
    <i name="e_0_energy">   -641.73894554 </i>
   </energy>
  </scstep>
  <scstep>
   <time name="diag">    1.82    1.82</time>
   <time name="diis">   22.70   22.75</time>
   <time name="orth">    0.43    0.43</time>
   <time name="total">   25.24   25.30</time>
   <energy>
    <i name="e_fr_energy">   -641.82636876 </i>
    <i name="e_wo_entrp">   -641.65894698 </i>
    <i name="e_0_energy">   -641.74265787 </i>
   </energy>
  </scstep>
  <scstep>
   <time name="diag">    1.82    1.82</time>
   <time name="diis">   20.82   20.86</time>
   <time name="orth">    0.43    0.43</time>
   <time name="total">   23.35   23.40</time>
   <energy>
    <i name="e_fr_energy">   -641.81929796 </i>
    <i name="e_wo_entrp">   -641.65234019 </i>
    <i name="e_0_energy">   -641.73581907 </i>
   </energy>
  </scstep>
  <scstep>
   <time name="diag">    1.83    1.83</time>
   <time name="diis">   21.50   21.54</time>
   <time name="orth">    0.43    0.43</time>
   <time name="total">   24.05   24.10</time>
   <energy>
    <i name="e_fr_energy">   -641.82038309 </i>
    <i name="e_wo_entrp">   -641.65201564 </i>
    <i name="e_0_energy">   -641.73619937 </i>
   </energy>
  </scstep>
  <scstep>
   <time name="diag">    1.83    1.84</time>
   <time name="diis">   20.27   20.29</time>
   <time name="orth">    0.43    0.43</time>
   <time name="total">   22.83   22.85</time>
   <energy>
    <i name="e_fr_energy">   -641.81929237 </i>
    <i name="e_wo_entrp">   -641.65238413 </i>
    <i name="e_0_energy">   -641.73583825 </i>
   </energy>
  </scstep>
  <scstep>
   <time name="diag">    1.85    1.85</time>
   <time name="diis">   20.69   20.73</time>
   <time name="orth">    0.43    0.43</time>
   <time name="total">   23.26   23.31</time>
   <energy>
    <i name="e_fr_energy">   -641.81930750 </i>
    <i name="e_wo_entrp">   -641.65204155 </i>
    <i name="e_0_energy">   -641.73567453 </i>
   </energy>
  </scstep>
  <scstep>
   <time name="diag">    1.83    1.83</time>
   <time name="diis">   19.31   19.35</time>
   <time name="orth">    0.43    0.43</time>
[...]
      </set>
     </set>
    </set>
   </array>
  </eigenvalues>
  <separator name="orbital magnetization" >
   <v name="MAGDIPOLOUT">      0.00000000      0.00000000      0.00000000</v>
  </separator>
  <dos>
   <i name="efermi">      7.39769160 </i>
   <total>
    <array>
     <dimension dim="1">gridpoints</dimension>
     <dimension dim="2">spin</dimension>
     <field>energy</field>
     <field>total</field>
     <field>integrated</field>
     <set>
      <set comment="spin 1">
       <r>   -53.3567     0.0000     0.0000 </r>
       <r>   -53.1342     0.0000     0.0000 </r>
       <r>   -52.9117     0.0000     0.0000 </r>
       <r>   -52.6893     0.0000     0.0000 </r>
       <r>   -52.4668     0.0000     0.0000 </r>
       <r>   -52.2443     0.0000     0.0000 </r>
       <r>   -52.0218     0.0000     0.0000 </r>
       <r>   -51.7994     0.0000     0.0000 </r>
       <r>   -51.5769     0.0000     0.0000 </r>
       <r>   -51.3544     0.0000     0.0000 </r>
       <r>   -51.1319     0.0000     0.0000 </r>
       <r>   -50.9094     0.0000     0.0000 </r>
       <r>   -50.6870     0.0000     0.0000 </r>
       <r>   -50.4645     0.2034     0.0453 </r>
       <r>   -50.2420     9.1489     2.0807 </r>
       <r>   -50.0195    21.0599     6.7661 </r>
       <r>   -49.7971    24.9669    12.3206 </r>
       <r>   -49.5746     7.4997    13.9892 </r>
       <r>   -49.3521     0.0487    14.0000 </r>
       <r>   -49.1296     0.0000    14.0000 </r>
       <r>   -48.9071     0.0000    14.0000 </r>
       <r>   -48.6847     0.0000    14.0000 </r>
       <r>   -48.4622     0.0000    14.0000 </r>
       <r>   -48.2397     0.0000    14.0000 </r>
       <r>   -48.0172     0.0000    14.0000 </r>
       <r>   -47.7947     0.0000    14.0000 </r>
       <r>   -47.5723     0.0000    14.0000 </r>
       <r>   -47.3498     0.0000    14.0000 </r>
       <r>   -47.1273     0.0000    14.0000 </r>
       <r>   -46.9048     0.0000    14.0000 </r>
       <r>   -46.6824     0.0000    14.0000 </r>
       <r>   -46.4599     0.0000    14.0000 </r>
       <r>   -46.2374     0.0000    14.0000 </r>
       <r>   -46.0149     0.0000    14.0000 </r>
       <r>   -45.7924     0.0000    14.0000 </r>
       <r>   -45.5700     0.0000    14.0000 </r>
       <r>   -45.3475     0.0000    14.0000 </r>
       <r>   -45.1250     0.0000    14.0000 </r>
       <r>   -44.9025     0.0000    14.0000 </r>
       <r>   -44.6800     0.0000    14.0000 </r>
       <r>   -44.4576     0.0000    14.0000 </r>
       <r>   -44.2351     0.0000    14.0000 </r>
       <r>   -44.0126     0.0000    14.0000 </r>
       <r>   -43.7901     0.0000    14.0000 </r>
       <r>   -43.5677     0.0000    14.0000 </r>
       <r>   -43.3452     0.0000    14.0000 </r>
       <r>   -43.1227     0.0000    14.0000 </r>
       <r>   -42.9002     0.0000    14.0000 </r>
       <r>   -42.6777     0.0000    14.0000 </r>
       <r>   -42.4553     0.0000    14.0000 </r>
       <r>   -42.2328     0.0000    14.0000 </r>
       <r>   -42.0103     0.0000    14.0000 </r>
       <r>   -41.7878     0.0009    14.0002 </r>
       <r>   -41.5654     3.7298    14.8300 </r>
       <r>   -41.3429    14.1309    17.9738 </r>
       <r>   -41.1204    21.5142    22.7602 </r>
       <r>   -40.8979    23.4386    27.9748 </r>
       <r>   -40.6754     0.1131    28.0000 </r>
       <r>   -40.4530     0.0000    28.0000 </r>
       <r>   -40.2305     0.0000    28.0000 </r>
       <r>   -40.0080     0.0000    28.0000 </r>
       <r>   -39.7855     0.0000    28.0000 </r>
       <r>   -39.5630     0.0000    28.0000 </r>
       <r>   -39.3406     0.0000    28.0000 </r>
       <r>   -39.1181     0.0000    28.0000 </r>
       <r>   -38.8956     0.0000    28.0000 </r>
       <r>   -38.6731     0.0000    28.0000 </r>
       <r>   -38.4507     0.0000    28.0000 </r>
       <r>   -38.2282     0.0000    28.0000 </r>
       <r>   -38.0057     0.0000    28.0000 </r>
       <r>   -37.7832     0.0000    28.0000 </r>
       <r>   -37.5607     0.0000    28.0000 </r>
       <r>   -37.3383     0.0000    28.0000 </r>
       <r>   -37.1158     0.0000    28.0000 </r>
       <r>   -36.8933     0.0000    28.0000 </r>
       <r>   -36.6708     0.0000    28.0000 </r>
       <r>   -36.4483     0.4487    28.0998 </r>
       <r>   -36.2259    29.3261    34.6242 </r>
       <r>   -36.0034   115.0614    60.2229 </r>
       <r>   -35.7809    16.9645    63.9972 </r>
       <r>   -35.5584     0.0127    64.0000 </r>
       <r>   -35.3360     0.0000    64.0000 </r>
       <r>   -35.1135     0.0000    64.0000 </r>
       <r>   -34.8910     0.0000    64.0000 </r>
       <r>   -34.6685     0.0000    64.0000 </r>
       <r>   -34.4460     0.0000    64.0000 </r>
       <r>   -34.2236     0.0000    64.0000 </r>
       <r>   -34.0011     0.0000    64.0000 </r>
       <r>   -33.7786     0.0000    64.0000 </r>
       <r>   -33.5561     0.0000    64.0000 </r>
       <r>   -33.3337     0.0000    64.0000 </r>
       <r>   -33.1112     0.0000    64.0000 </r>
       <r>   -32.8887     0.0000    64.0000 </r>
       <r>   -32.6662     0.0000    64.0000 </r>
       <r>   -32.4437     0.0000    64.0000 </r>
       <r>   -32.2213     0.0000    64.0000 </r>
       <r>   -31.9988     0.0000    64.0000 </r>
       <r>   -31.7763     0.0000    64.0000 </r>
       <r>   -31.5538     0.0000    64.0000 </r>
       <r>   -31.3313     0.0000    64.0000 </r>
       <r>   -31.1089     0.0000    64.0000 </r>
       <r>   -30.8864     0.0000    64.0000 </r>
       <r>   -30.6639     0.0000    64.0000 </r>
       <r>   -30.4414     0.0000    64.0000 </r>
       <r>   -30.2190     0.0000    64.0000 </r>
       <r>   -29.9965     0.0000    64.0000 </r>
       <r>   -29.7740     0.0000    64.0000 </r>
       <r>   -29.5515     0.0000    64.0000 </r>
       <r>   -29.3290     0.0000    64.0000 </r>
       <r>   -29.1066     0.0000    64.0000 </r>
       <r>   -28.8841     0.0000    64.0000 </r>
       <r>   -28.6616     0.0000    64.0000 </r>
       <r>   -28.4391     0.0000    64.0000 </r>
       <r>   -28.2166     0.0096    64.0021 </r>
       <r>   -27.9942     9.3707    66.0869 </r>
       <r>   -27.7717    43.8456    75.8416 </r>
       <r>   -27.5492    73.5180    92.1978 </r>
       <r>   -27.3267    34.8001    99.9401 </r>
       <r>   -27.1043     0.2694   100.0000 </r>
       <r>   -26.8818     0.2013   100.0448 </r>
       <r>   -26.6593    19.2719   104.3324 </r>
       <r>   -26.4368    52.2744   115.9623 </r>
       <r>   -26.2143    79.6629   133.6856 </r>
       <r>   -25.9919    36.1437   141.7267 </r>
       <r>   -25.7694     1.2282   142.0000 </r>
       <r>   -25.5469     0.0000   142.0000 </r>
       <r>   -25.3244     0.0000   142.0000 </r>
       <r>   -25.1020     0.0000   142.0000 </r>
       <r>   -24.8795     0.0000   142.0000 </r>
       <r>   -24.6570     0.0000   142.0000 </r>
       <r>   -24.4345     0.0000   142.0000 </r>
       <r>   -24.2120     0.0000   142.0000 </r>
       <r>   -23.9896     0.0000   142.0000 </r>
       <r>   -23.7671     0.7377   142.1641 </r>
       <r>   -23.5446    20.9569   146.8266 </r>
       <r>   -23.3221    29.5259   153.3955 </r>
       <r>   -23.0996    27.2118   159.4495 </r>
       <r>   -22.8772    30.9502   166.3352 </r>
       <r>   -22.6547    23.4324   171.5484 </r>
       <r>   -22.4322    26.6357   177.4743 </r>
       <r>   -22.2097     2.3626   178.0000 </r>
       <r>   -21.9873     0.0002   178.0000 </r>
       <r>   -21.7648     0.0000   178.0000 </r>
       <r>   -21.5423     0.0000   178.0000 </r>
       <r>   -21.3198     0.0000   178.0000 </r>
       <r>   -21.0973     0.0000   178.0000 </r>
       <r>   -20.8749     0.0000   178.0000 </r>
       <r>   -20.6524     0.0000   178.0000 </r>
       <r>   -20.4299     0.0000   178.0000 </r>
       <r>   -20.2074     0.0028   178.0006 </r>
       <r>   -19.9849     3.7447   178.8337 </r>
       <r>   -19.7625    34.7541   186.5658 </r>
       <r>   -19.5400    52.4605   198.2371 </r>
       <r>   -19.3175    75.3105   214.9921 </r>
       <r>   -19.0950    20.8415   219.6288 </r>
       <r>   -18.8726     1.6681   219.9999 </r>
       <r>   -18.6501     0.0002   220.0000 </r>
       <r>   -18.4276     0.0000   220.0000 </r>
       <r>   -18.2051     0.0000   220.0000 </r>
       <r>   -17.9826     0.0000   220.0000 </r>
       <r>   -17.7602     0.0000   220.0000 </r>
       <r>   -17.5377     0.0000   220.0000 </r>
       <r>   -17.3152     0.0000   220.0000 </r>
       <r>   -17.0927     0.0000   220.0000 </r>
       <r>   -16.8703     0.0000   220.0000 </r>
       <r>   -16.6478     0.0000   220.0000 </r>
       <r>   -16.4253     0.0000   220.0000 </r>
       <r>   -16.2028     0.0000   220.0000 </r>
       <r>   -15.9803     0.0000   220.0000 </r>
       <r>   -15.7579     0.0000   220.0000 </r>
       <r>   -15.5354     0.0000   220.0000 </r>
       <r>   -15.3129     0.0000   220.0000 </r>
       <r>   -15.0904     0.0000   220.0000 </r>
       <r>   -14.8679     0.0000   220.0000 </r>
       <r>   -14.6455     0.0000   220.0000 </r>
       <r>   -14.4230     0.0000   220.0000 </r>
       <r>   -14.2005     0.0000   220.0000 </r>
       <r>   -13.9780     0.0000   220.0000 </r>
       <r>   -13.7556     0.0000   220.0000 </r>
       <r>   -13.5331     0.0000   220.0000 </r>
       <r>   -13.3106     0.0000   220.0000 </r>
       <r>   -13.0881     0.0000   220.0000 </r>
       <r>   -12.8656     0.0000   220.0000 </r>
       <r>   -12.6432     0.0000   220.0000 </r>
       <r>   -12.4207     0.0000   220.0000 </r>
       <r>   -12.1982     0.0000   220.0000 </r>
       <r>   -11.9757     0.0000   220.0000 </r>
       <r>   -11.7533     0.0000   220.0000 </r>
       <r>   -11.5308     0.0000   220.0000 </r>
       <r>   -11.3083     0.0000   220.0000 </r>
       <r>   -11.0858     0.0000   220.0000 </r>
       <r>   -10.8633     0.0000   220.0000 </r>
       <r>   -10.6409     0.0000   220.0000 </r>
       <r>   -10.4184     0.0000   220.0000 </r>
       <r>   -10.1959     0.0000   220.0000 </r>
       <r>    -9.9734     0.0000   220.0000 </r>
       <r>    -9.7509     0.0000   220.0000 </r>
       <r>    -9.5285     0.0000   220.0000 </r>
       <r>    -9.3060     0.0000   220.0000 </r>
       <r>    -9.0835     0.0000   220.0000 </r>
       <r>    -8.8610     0.0000   220.0000 </r>
       <r>    -8.6386     0.0262   220.0058 </r>
       <r>    -8.4161     3.2179   220.7218 </r>
       <r>    -8.1936     6.5243   222.1733 </r>
       <r>    -7.9711     9.6870   224.3284 </r>
       <r>    -7.7486    19.6488   228.6999 </r>
       <r>    -7.5262    15.1283   232.0656 </r>
       <r>    -7.3037    22.2907   237.0248 </r>
       <r>    -7.0812    21.2017   241.7417 </r>
       <r>    -6.8587    10.7562   244.1347 </r>
       <r>    -6.6362     7.9585   245.9053 </r>
       <r>    -6.4138     0.4257   246.0000 </r>
       <r>    -6.1913     0.0000   246.0000 </r>
       <r>    -5.9688     0.0000   246.0000 </r>
       <r>    -5.7463     0.0000   246.0000 </r>
       <r>    -5.5239     0.0000   246.0000 </r>
       <r>    -5.3014     0.0137   246.0031 </r>
       <r>    -5.0789     1.5656   246.3514 </r>
       <r>    -4.8564     5.8156   247.6452 </r>
       <r>    -4.6339     2.1988   248.1344 </r>
       <r>    -4.4115     7.8889   249.8895 </r>
       <r>    -4.1890     8.9876   251.8891 </r>
       <r>    -3.9665    11.3211   254.4078 </r>
       <r>    -3.7440    19.6847   258.7872 </r>
       <r>    -3.5216    19.7859   263.1891 </r>
       <r>    -3.2991    21.7634   268.0310 </r>
       <r>    -3.0766    29.3604   274.5630 </r>
       <r>    -2.8541    20.3191   279.0836 </r>
       <r>    -2.6316    13.9628   282.1900 </r>
       <r>    -2.4092     6.3981   283.6135 </r>
       <r>    -2.1867     1.7037   283.9925 </r>
       <r>    -1.9642     0.0337   284.0000 </r>
       <r>    -1.7417     0.0000   284.0000 </r>
       <r>    -1.5192     0.0000   284.0000 </r>
       <r>    -1.2968     0.0000   284.0000 </r>
       <r>    -1.0743     0.0000   284.0000 </r>
       <r>    -0.8518     0.0000   284.0000 </r>
       <r>    -0.6293     0.0000   284.0000 </r>
       <r>    -0.4069     0.0000   284.0000 </r>
       <r>    -0.1844     0.1059   284.0236 </r>
       <r>     0.0381     1.1626   284.2822 </r>
       <r>     0.2606     4.9209   285.3770 </r>
       <r>     0.4831    11.1907   287.8667 </r>
       <r>     0.7055    11.6855   290.4665 </r>
       <r>     0.9280    15.5273   293.9210 </r>
       <r>     1.1505    21.3304   298.6665 </r>
       <r>     1.3730    32.0324   305.7930 </r>
       <r>     1.5955    28.6653   312.1705 </r>
       <r>     1.8179    28.3188   318.4708 </r>
       <r>     2.0404    35.3205   326.3288 </r>
       <r>     2.2629    34.4491   333.9930 </r>
       <r>     2.4854    37.6007   342.3584 </r>
       <r>     2.7078    50.0171   353.4861 </r>
       <r>     2.9303    54.7178   365.6596 </r>
       <r>     3.1528    57.5101   378.4544 </r>
       <r>     3.3753    60.8438   391.9908 </r>
       <r>     3.5978    58.1262   404.9226 </r>
       <r>     3.8202    54.1205   416.9632 </r>
       <r>     4.0427    55.4608   429.3021 </r>
       <r>     4.2652    47.7894   439.9342 </r>
       <r>     4.4877    37.1089   448.1901 </r>
       <r>     4.7101    33.1960   455.5755 </r>
       <r>     4.9326    29.8998   462.2275 </r>
       <r>     5.1551    25.0887   467.8092 </r>
       <r>     5.3776    18.1952   471.8573 </r>
       <r>     5.6001    13.4930   474.8592 </r>
       <r>     5.8225     5.8583   476.1625 </r>
       <r>     6.0450    12.7999   479.0102 </r>
       <r>     6.2675    14.6413   482.2676 </r>
       <r>     6.4900    17.3012   486.1167 </r>
       <r>     6.7125    22.0013   491.0115 </r>
       <r>     6.9349    23.8017   496.3069 </r>
       <r>     7.1574    20.0465   500.7668 </r>
       <r>     7.3799    25.9242   506.5344 </r>
       <r>     7.6024    23.1848   511.6925 </r>
       <r>     7.8248    30.2990   518.4334 </r>
       <r>     8.0473    39.6199   527.2479 </r>
       <r>     8.2698    40.3882   536.2334 </r>
       <r>     8.4923    44.4202   546.1160 </r>
       <r>     8.7148    42.7121   555.6185 </r>
       <r>     8.9372    42.7443   565.1282 </r>
       <r>     9.1597    45.4090   575.2307 </r>
       <r>     9.3822    45.0061   585.2436 </r>
       <r>     9.6047    39.3814   594.0051 </r>
       <r>     9.8272    39.9258   602.8877 </r>
       <r>    10.0496    41.3588   612.0892 </r>
       <r>    10.2721    39.5002   620.8771 </r>
       <r>    10.4946    13.9575   623.9824 </r>
       <r>    10.7171     0.0793   624.0000 </r>
       <r>    10.9395     0.0000   624.0000 </r>
       <r>    11.1620     0.0000   624.0000 </r>
       <r>    11.3845     0.0000   624.0000 </r>
       <r>    11.6070     0.0000   624.0000 </r>
       <r>    11.8295     0.0000   624.0000 </r>
       <r>    12.0519     0.0000   624.0000 </r>
       <r>    12.2744     0.0000   624.0000 </r>
       <r>    12.4969     0.0000   624.0000 </r>
       <r>    12.7194     0.0000   624.0000 </r>
       <r>    12.9418     0.0000   624.0000 </r>
       <r>    13.1643     0.0000   624.0000 </r>
       <r>    13.3868     0.0000   624.0000 </r>
      </set>
     </set>
    </array>
   </total>
  </dos>
 </calculation>
 <structure name="finalpos" >
  <crystal>
   <varray name="basis" >
    <v>       8.89782896       0.00415353      -0.01254154 </v>
    <v>       0.01041083       8.89703082      -0.00987627 </v>
    <v>       0.01952466      -0.02522196       8.92027919 </v>
   </varray>
   <i name="volume">    706.16686623 </i>
   <varray name="rec_basis" >
    <v>       0.11238668      -0.00013178      -0.00024636 </v>
    <v>      -0.00005202       0.11239746       0.00031792 </v>
    <v>       0.00015795       0.00012426       0.11210412 </v>
   </varray>
  </crystal>
  <varray name="positions" >
   <v>       0.00824703       0.99238288       0.99834098 </v>
   <v>       0.27454963       0.99819613       0.25050855 </v>
   <v>       0.24844319       0.49682386       0.24831178 </v>
   <v>       0.49545489       0.50003665       0.00039072 </v>
   <v>       0.50106521       0.24623962       0.74563795 </v>
   <v>      -0.00025018       0.49931517       0.50516484 </v>
   <v>       0.49612645       0.76005212       0.74656689 </v>
   <v>       0.00089317       0.24523113       0.24206542 </v>
   <v>       0.74098120       0.75455316       0.00487341 </v>
   <v>      -0.00328561       0.24593414       0.75839027 </v>
   <v>       0.74732669       0.23786669       0.49902749 </v>
   <v>       0.00127994       0.75631832       0.74978071 </v>
   <v>       0.24751044       0.50029496       0.75205683 </v>
   <v>       0.26274821       0.23791763       0.99145302 </v>
   <v>       0.50206613       0.25989532       0.25018928 </v>
   <v>       0.73001676       0.99524788       0.24160850 </v>
   <v>       0.73722536       0.24368857       0.00073959 </v>
   <v>       0.25439560       0.75073287      -0.00130246 </v>
   <v>       0.25393424       0.24555330       0.50785532 </v>
   <v>       0.25343365       0.75395806       0.50058678 </v>
   <v>       0.25311553       0.24630490       0.24525494 </v>
   <v>       0.26427199       0.00008520       0.99313886 </v>
   <v>      -0.00295358       0.24660260      -0.00013178 </v>
   <v>       0.74656458       0.24676285       0.24677642 </v>
   <v>       0.73758065       0.00321679       0.00312022 </v>
   <v>       0.51287768       0.00439004       0.28424509 </v>
   <v>       0.99361404       0.49877202       0.24335700 </v>
   <v>       0.49419787       0.76435811       0.00478544 </v>
   <v>      -0.00352829       0.00258919       0.74269399 </v>
   <v>       0.75156634       0.24906378       0.75250898 </v>
   <v>       0.75426674      -0.00269867       0.49868588 </v>
   <v>       0.49754425       0.24754709       0.49265491 </v>
   <v>       0.52609391       0.00240228       0.74040755 </v>
   <v>       0.99935806      -0.00340648       0.25231649 </v>
   <v>       0.50049810       0.23819065       0.00394505 </v>
   <v>       0.25453777       0.74854449       0.24830109 </v>
   <v>       0.23827203       0.49969275       0.99866132 </v>
   <v>       0.00347263       0.74297269       0.00227286 </v>
   <v>       0.74526566       0.75242882       0.25305196 </v>
   <v>       0.75801013       0.49503131       0.00196564 </v>
   <v>       0.50288869       0.49686310       0.25391889 </v>
   <v>       0.24785376       0.24085509       0.75033429 </v>
   <v>       0.25606470       0.00007301       0.50990949 </v>
   <v>       0.00177703       0.24378693       0.49900914 </v>
   <v>       0.24692949       0.76011639       0.75211225 </v>
   <v>       0.25532363       0.49802730       0.50055694 </v>
   <v>      -0.00065756       0.75654505       0.49598695 </v>
   <v>       0.99568020       0.50157745       0.76085014 </v>
   <v>       0.74997672       0.75554014       0.75110024 </v>
   <v>       0.74453434       0.50229352       0.49872548 </v>
   <v>       0.49653670       0.76126799       0.48955845 </v>
   <v>       0.50304929       0.50215372       0.74454893 </v>
   <v>       0.50221732       0.01109182       0.95823761 </v>
   <v>       0.00396120       0.51954685       0.98975113 </v>
   <v>       0.49870025       0.72905214       0.26249567 </v>
   <v>       0.23824989       0.00282671       0.74003854 </v>
   <v>       0.47460551       0.99472546       0.52174794 </v>
   <v>       0.74047273       0.98056717       0.77749880 </v>
   <v>       0.00845591       0.75251532       0.24960188 </v>
   <v>       0.74678682       0.50498943       0.24835164 </v>
   <v>       0.01570004       0.00026913       0.49812942 </v>
   <v>       0.49784300       0.50884487       0.49858145 </v>
   <v>       0.74987863       0.51122309       0.75505250 </v>
   <v>       0.74638403       0.76215920       0.49364456 </v>
  </varray>
 </structure>
</modeling>
