 running on   24 total cores
 distrk:  each k-point on   24 cores,    1 groups
 distr:  one band on    1 cores,   24 groups
 using from now: INCAR     
 vasp.5.4.4.18Apr17-6-g9f103f2a35 (build Oct 18 2021 20:38:43) complex          
  
 POSCAR found type information on POSCAR  Ta W  Ti N  C  Cr Mo
 POSCAR found :  7 types and      64 ions
 scaLAPACK will be used

 ----------------------------------------------------------------------------- 
|                                                                             |
|           W    W    AA    RRRRR   N    N  II  N    N   GGGG   !!!           |
|           W    W   A  A   R    R  NN   N  II  NN   N  G    G  !!!           |
|           W    W  A    A  R    R  N N  N  II  N N  N  G       !!!           |
|           W WW W  AAAAAA  RRRRR   N  N N  II  N  N N  G  GGG   !            |
|           WW  WW  A    A  R   R   N   NN  II  N   NN  G    G                |
|           W    W  A    A  R    R  N    N  II  N    N   GGGG   !!!           |
|                                                                             |
|      For optimal performance we recommend to set                            |
|        NCORE= 4 - approx SQRT( number of cores)                             |
|      NCORE specifies how many cores store one orbital (NPAR=cpu/NCORE).     |
|      This setting can  greatly improve the performance of VASP for DFT.     |
|      The default,   NCORE=1            might be grossly inefficient         |
|      on modern multi-core architectures or massively parallel machines.     |
|      Do your own testing !!!!                                               |
|      Unfortunately you need to use the default for GW and RPA calculations. |
|      (for HF NCORE is supported but not extensively tested yet)             |
|                                                                             |
 ----------------------------------------------------------------------------- 


 ----------------------------------------------------------------------------- 
|                                                                             |
|  ADVICE TO THIS USER RUNNING 'VASP/VAMP'   (HEAR YOUR MASTER'S VOICE ...):  |
|                                                                             |
|      You have a (more or less) 'large supercell' and for larger cells       |
|      it might be more efficient to use real space projection operators      |
|      So try LREAL= Auto  in the INCAR   file.                               |
|      Mind: If you want to do a very accurate calculations keep the          |
|      reciprocal projection scheme          (i.e. LREAL=.FALSE.)             |
|                                                                             |
 ----------------------------------------------------------------------------- 

 LDA part: xc-table for Pade appr. of Perdew
 POSCAR, INCAR and KPOINTS ok, starting setup
 FFT: planning ...
 WAVECAR not read
 entering main loop
       N       E                     dE             d eps       ncg     rms          rms(c)
DAV:   1     0.590856745933E+04    0.59086E+04   -0.19525E+05  8736   0.145E+03
DAV:   2     0.179242322206E+03   -0.57293E+04   -0.55084E+04  9072   0.529E+02
DAV:   3    -0.676741140007E+03   -0.85598E+03   -0.79395E+03 13512   0.184E+02
DAV:   4    -0.777059954870E+03   -0.10032E+03   -0.96748E+02 15864   0.740E+01
DAV:   5    -0.785968680104E+03   -0.89087E+01   -0.86962E+01 16104   0.179E+01    0.745E+01
RMM:   6    -0.946126073758E+03   -0.16016E+03   -0.22619E+03 12177   0.131E+02    0.126E+02
RMM:   7    -0.664800321737E+03    0.28133E+03   -0.26603E+02 14281   0.341E+01    0.510E+01
RMM:   8    -0.652841076111E+03    0.11959E+02   -0.45321E+01 13817   0.158E+01    0.339E+01
RMM:   9    -0.646695860314E+03    0.61452E+01   -0.13787E+01 13840   0.815E+00    0.311E+01
RMM:  10    -0.642425047692E+03    0.42708E+01   -0.51872E+00 13940   0.614E+00    0.125E+01
RMM:  11    -0.644229537861E+03   -0.18045E+01   -0.42486E+00 13302   0.521E+00    0.264E+01
RMM:  12    -0.642605502600E+03    0.16240E+01   -0.39787E+00 13621   0.509E+00    0.173E+01
RMM:  13    -0.642355141778E+03    0.25036E+00   -0.37064E+00 13991   0.374E+00    0.190E+01
RMM:  14    -0.641330168892E+03    0.10250E+01   -0.16926E+00 14002   0.285E+00    0.765E+00
RMM:  15    -0.641621108286E+03   -0.29094E+00   -0.10276E+00 13464   0.241E+00    0.133E+01
RMM:  16    -0.641032049705E+03    0.58906E+00   -0.46554E-01 13108   0.195E+00    0.409E+00
RMM:  17    -0.641037799856E+03   -0.57502E-02   -0.37094E-01 14157   0.111E+00    0.575E+00
RMM:  18    -0.640973670661E+03    0.64129E-01   -0.20876E-01 13885   0.104E+00    0.337E+00
RMM:  19    -0.640939930794E+03    0.33740E-01   -0.25128E-01 14025   0.859E-01    0.968E-01
RMM:  20    -0.640945041406E+03   -0.51106E-02   -0.12059E-01 14009   0.590E-01    0.702E-01
RMM:  21    -0.640943889002E+03    0.11524E-02   -0.44361E-02 14047   0.355E-01    0.310E-01
RMM:  22    -0.640944952570E+03   -0.10636E-02   -0.24647E-02 13595   0.243E-01    0.141E-01
RMM:  23    -0.640946101738E+03   -0.11492E-02   -0.14913E-02 13489   0.156E-01    0.839E-02
RMM:  24    -0.640946894080E+03   -0.79234E-03   -0.93847E-03 12803   0.113E-01    0.692E-02
RMM:  25    -0.640947378799E+03   -0.48472E-03   -0.57909E-03 12445   0.859E-02    0.417E-02
RMM:  26    -0.640947713308E+03   -0.33451E-03   -0.38203E-03 12179   0.680E-02    0.365E-02
RMM:  27    -0.640947938512E+03   -0.22520E-03   -0.25639E-03 11941   0.522E-02    0.171E-02
RMM:  28    -0.640948093671E+03   -0.15516E-03   -0.17056E-03 11855   0.424E-02    0.146E-02
RMM:  29    -0.640948195730E+03   -0.10206E-03   -0.11250E-03 11392   0.344E-02    0.823E-03
RMM:  30    -0.640948262153E+03   -0.66423E-04   -0.71972E-04 11109   0.283E-02    0.857E-03
RMM:  31    -0.640948306368E+03   -0.44215E-04   -0.48571E-04 10471   0.241E-02    0.315E-03
RMM:  32    -0.640948335139E+03   -0.28771E-04   -0.31598E-04 10076   0.204E-02    0.576E-03
RMM:  33    -0.640948354376E+03   -0.19236E-04   -0.21425E-04  9652   0.179E-02    0.125E-03
RMM:  34    -0.640948366645E+03   -0.12270E-04   -0.13848E-04  9004   0.158E-02    0.234E-03
RMM:  35    -0.640948375412E+03   -0.87665E-05   -0.10088E-04  8726   0.144E-02    0.113E-03
RMM:  36    -0.640948380769E+03   -0.53569E-05   -0.65018E-05  8617   0.133E-02
   1 F= -.64094838E+03 E0= -.64082057E+03  d E =-.640948E+03
 curvature:   0.00 expect dE= 0.000E+00 dE for cont linesearch  0.000E+00
 trial: gam= 0.00000 g(F)=  0.372E+01 g(S)=  0.288E+02 ort = 0.000E+00 (trialstep = 0.100E+01)
 search vector abs. value=  0.326E+02
 bond charge predicted
       N       E                     dE             d eps       ncg     rms          rms(c)
DAV:   1    -0.834082787953E+03   -0.19313E+03   -0.62317E+03 12432   0.369E+02    0.100E+02
RMM:   2    -0.923285523781E+03   -0.89203E+02   -0.22151E+03 10099   0.177E+02    0.103E+02
RMM:   3    -0.672545031829E+03    0.25074E+03   -0.18114E+02 13241   0.420E+01    0.558E+01
RMM:   4    -0.640098429911E+03    0.32447E+02   -0.89965E+01 11912   0.327E+01    0.265E+01
RMM:   5    -0.640734610036E+03   -0.63618E+00   -0.63115E+01 11211   0.236E+01    0.407E+01
RMM:   6    -0.627653791367E+03    0.13081E+02   -0.16575E+01 11977   0.134E+01    0.968E+00
RMM:   7    -0.629506107509E+03   -0.18523E+01   -0.66956E+00 13174   0.685E+00    0.206E+01
RMM:   8    -0.627176003559E+03    0.23301E+01   -0.19896E+00 12867   0.475E+00    0.647E+00
RMM:   9    -0.627213651257E+03   -0.37648E-01   -0.11041E+00 14232   0.238E+00    0.592E+00
RMM:  10    -0.627267839346E+03   -0.54188E-01   -0.43610E-01 13173   0.218E+00    0.568E+00
RMM:  11    -0.627240265194E+03    0.27574E-01   -0.40659E-01 13995   0.168E+00    0.318E+00
RMM:  12    -0.627308371215E+03   -0.68106E-01   -0.26085E-01 13327   0.145E+00    0.421E+00
RMM:  13    -0.627257323227E+03    0.51048E-01   -0.21810E-01 13407   0.128E+00    0.141E+00
RMM:  14    -0.627276425570E+03   -0.19102E-01   -0.14226E-01 14193   0.775E-01    0.152E+00
RMM:  15    -0.627271196275E+03    0.52293E-02   -0.63560E-02 14324   0.549E-01    0.684E-01
RMM:  16    -0.627274540455E+03   -0.33442E-02   -0.44106E-02 14007   0.403E-01    0.407E-01
RMM:  17    -0.627275368763E+03   -0.82831E-03   -0.21444E-02 14069   0.293E-01    0.158E-01
RMM:  18    -0.627275557509E+03   -0.18875E-03   -0.11635E-02 13820   0.224E-01    0.131E-01
RMM:  19    -0.627275966276E+03   -0.40877E-03   -0.56588E-03 13175   0.143E-01    0.804E-02
RMM:  20    -0.627276171026E+03   -0.20475E-03   -0.28910E-03 12643   0.921E-02    0.339E-02
RMM:  21    -0.627276306153E+03   -0.13513E-03   -0.16790E-03 12514   0.697E-02    0.188E-02
RMM:  22    -0.627276385873E+03   -0.79720E-04   -0.93875E-04 11907   0.529E-02    0.117E-02
RMM:  23    -0.627276427717E+03   -0.41844E-04   -0.51645E-04 11532   0.382E-02    0.777E-03
RMM:  24    -0.627276456226E+03   -0.28510E-04   -0.33239E-04 11596   0.309E-02    0.607E-03
RMM:  25    -0.627276472237E+03   -0.16011E-04   -0.18628E-04 11010   0.230E-02    0.284E-03
RMM:  26    -0.627276482539E+03   -0.10302E-04   -0.11622E-04 10694   0.200E-02    0.285E-03
RMM:  27    -0.627276487869E+03   -0.53306E-05   -0.69701E-05  9985   0.160E-02
   2 F= -.62727649E+03 E0= -.62719861E+03  d E =0.136719E+02
 trial-energy change:   13.671893  1 .order   18.173140  -32.559270   68.905549
 step:   0.3838(harm=  0.3209)  dis= 0.03592  next Energy=  -647.451802 (dE=-0.650E+01)
 bond charge predicted
       N       E                     dE             d eps       ncg     rms          rms(c)
DAV:   1    -0.767515222579E+03   -0.14024E+03   -0.26825E+03 11640   0.221E+02    0.108E+02
RMM:   2    -0.116647315860E+04   -0.39896E+03   -0.78418E+02 13339   0.683E+01    0.982E+01
RMM:   3    -0.753591888085E+03    0.41288E+03   -0.20785E+02 13362   0.498E+01    0.690E+01
RMM:   4    -0.658157235308E+03    0.95435E+02   -0.10651E+02 12057   0.343E+01    0.260E+01
RMM:   5    -0.680914420921E+03   -0.22757E+02   -0.10924E+02 11735   0.308E+01    0.573E+01
RMM:   6    -0.658549341060E+03    0.22365E+02   -0.26659E+01 12982   0.153E+01    0.362E+01
RMM:   7    -0.659959236118E+03   -0.14099E+01   -0.14777E+01 12248   0.125E+01    0.354E+01
RMM:   8    -0.652342420854E+03    0.76168E+01   -0.52819E+00 13251   0.675E+00    0.237E+01
RMM:   9    -0.648103887989E+03    0.42385E+01   -0.25627E+00 11836   0.612E+00    0.850E+00
RMM:  10    -0.647962712731E+03    0.14118E+00   -0.95633E-01 13310   0.275E+00    0.821E+00
RMM:  11    -0.647869398248E+03    0.93314E-01   -0.39362E-01 13565   0.162E+00    0.596E+00
RMM:  12    -0.647952847476E+03   -0.83449E-01   -0.26985E-01 13617   0.146E+00    0.746E+00
RMM:  13    -0.647712875592E+03    0.23997E+00   -0.20606E-01 12305   0.154E+00    0.367E+00
RMM:  14    -0.647744592376E+03   -0.31717E-01   -0.17840E-01 13854   0.111E+00    0.419E+00
RMM:  15    -0.647691221667E+03    0.53371E-01   -0.11051E-01 13556   0.929E-01    0.250E+00
RMM:  16    -0.647684515106E+03    0.67066E-02   -0.12363E-01 14074   0.777E-01    0.145E+00
RMM:  17    -0.647682868626E+03    0.16465E-02   -0.55616E-02 14128   0.417E-01    0.782E-01
RMM:  18    -0.647684438284E+03   -0.15697E-02   -0.23895E-02 14029   0.388E-01    0.503E-01
RMM:  19    -0.647686552643E+03   -0.21144E-02   -0.17928E-02 13798   0.232E-01    0.346E-01
RMM:  20    -0.647687400916E+03   -0.84827E-03   -0.10312E-02 13621   0.191E-01    0.332E-01
RMM:  21    -0.647687333237E+03    0.67679E-04   -0.68995E-03 13442   0.181E-01    0.970E-02
RMM:  22    -0.647687745862E+03   -0.41262E-03   -0.46147E-03 12828   0.104E-01    0.117E-01
RMM:  23    -0.647687862654E+03   -0.11679E-03   -0.21526E-03 12707   0.817E-02    0.609E-02
RMM:  24    -0.647687989174E+03   -0.12652E-03   -0.13361E-03 12412   0.554E-02    0.727E-02
RMM:  25    -0.647688025861E+03   -0.36686E-04   -0.76302E-04 12426   0.499E-02    0.298E-02
RMM:  26    -0.647688063538E+03   -0.37678E-04   -0.46820E-04 11858   0.360E-02    0.106E-02
RMM:  27    -0.647688089186E+03   -0.25648E-04   -0.28067E-04 11844   0.289E-02    0.139E-02
RMM:  28    -0.647688104630E+03   -0.15444E-04   -0.18129E-04 11037   0.234E-02    0.140E-02
RMM:  29    -0.647688111981E+03   -0.73513E-05   -0.98270E-05 10445   0.197E-02
   3 F= -.64768811E+03 E0= -.64758173E+03  d E =-.673973E+01
 curvature:  -0.16 expect dE=-0.730E+00 dE for cont linesearch -0.213E-01
 ZBRENT: interpolating
 opt :   0.4020  next Energy=  -647.707064 (dE=-0.676E+01)
 bond charge predicted
       N       E                     dE             d eps       ncg     rms          rms(c)
DAV:   1    -0.647808784335E+03   -0.12068E+00   -0.22084E+00 12768   0.649E+00    0.334E+00
RMM:   2    -0.650187331255E+03   -0.23785E+01   -0.20329E+00 11031   0.498E+00    0.200E+01
RMM:   3    -0.647864120338E+03    0.23232E+01   -0.65582E-01 11019   0.329E+00    0.553E+00
RMM:   4    -0.647750404206E+03    0.11372E+00   -0.94883E-02 11969   0.104E+00    0.261E+00
RMM:   5    -0.647731605135E+03    0.18799E-01   -0.41336E-02 12635   0.567E-01    0.201E+00
RMM:   6    -0.647727641824E+03    0.39633E-02   -0.19290E-02 11561   0.499E-01    0.190E+00
RMM:   7    -0.647711380704E+03    0.16261E-01   -0.15724E-02 12314   0.355E-01    0.620E-01
RMM:   8    -0.647714766000E+03   -0.33853E-02   -0.64956E-03 11586   0.281E-01    0.109E+00
RMM:   9    -0.647709456723E+03    0.53093E-02   -0.35126E-03 12320   0.187E-01    0.174E-01
RMM:  10    -0.647709590302E+03   -0.13358E-03   -0.14393E-03 12752   0.853E-02    0.295E-01
RMM:  11    -0.647709303034E+03    0.28727E-03   -0.36731E-04 11322   0.633E-02    0.116E-01
RMM:  12    -0.647709294911E+03    0.81237E-05   -0.26013E-04 11905   0.346E-02    0.725E-02
RMM:  13    -0.647709326853E+03   -0.31942E-04   -0.11940E-04 10001   0.304E-02    0.928E-02
RMM:  14    -0.647709324952E+03    0.19003E-05   -0.97244E-05 10560   0.247E-02
   4 F= -.64770932E+03 E0= -.64760391E+03  d E =-.676094E+01
 curvature:  -0.14 expect dE=-0.689E+00 dE for cont linesearch -0.110E-02
 trial: gam= 0.13441 g(F)=  0.449E+01 g(S)=  0.385E+00 ort = 0.503E+00 (trialstep = 0.880E+00)
 search vector abs. value=  0.560E+01
 bond charge predicted
       N       E                     dE             d eps       ncg     rms          rms(c)
DAV:   1    -0.644307673319E+03    0.34017E+01   -0.62477E+02  9072   0.922E+01    0.601E+00
RMM:   2    -0.654554481708E+03   -0.10247E+02   -0.64856E+01 14056   0.239E+01    0.245E+01
RMM:   3    -0.650412308590E+03    0.41422E+01   -0.64049E+00 13056   0.894E+00    0.101E+01
RMM:   4    -0.650393322007E+03    0.18987E-01   -0.24452E+00 14020   0.362E+00    0.979E+00
RMM:   5    -0.650071025963E+03    0.32230E+00   -0.72840E-01 13832   0.237E+00    0.587E+00
RMM:   6    -0.650024205006E+03    0.46821E-01   -0.49707E-01 14020   0.156E+00    0.531E+00
RMM:   7    -0.649901562844E+03    0.12264E+00   -0.29837E-01 13927   0.136E+00    0.274E+00
RMM:   8    -0.649975048293E+03   -0.73485E-01   -0.21486E-01 13149   0.131E+00    0.482E+00
RMM:   9    -0.649896629352E+03    0.78419E-01   -0.13483E-01 13494   0.103E+00    0.297E+00
RMM:  10    -0.649862314341E+03    0.34315E-01   -0.84839E-02 13659   0.692E-01    0.121E+00
RMM:  11    -0.649859265800E+03    0.30485E-02   -0.49525E-02 13894   0.395E-01    0.783E-01
RMM:  12    -0.649864110050E+03   -0.48443E-02   -0.26420E-02 13635   0.356E-01    0.121E+00
RMM:  13    -0.649858346256E+03    0.57638E-02   -0.18188E-02 13975   0.245E-01    0.206E-01
RMM:  14    -0.649858951848E+03   -0.60559E-03   -0.10313E-02 13402   0.146E-01    0.121E-01
RMM:  15    -0.649859262784E+03   -0.31094E-03   -0.43023E-03 12789   0.103E-01    0.821E-02
RMM:  16    -0.649859504866E+03   -0.24208E-03   -0.29734E-03 12475   0.734E-02    0.386E-02
RMM:  17    -0.649859616141E+03   -0.11128E-03   -0.14803E-03 11993   0.601E-02    0.213E-02
RMM:  18    -0.649859702386E+03   -0.86245E-04   -0.99273E-04 11259   0.417E-02    0.179E-02
RMM:  19    -0.649859751645E+03   -0.49259E-04   -0.58061E-04 11703   0.356E-02    0.117E-02
RMM:  20    -0.649859785130E+03   -0.33485E-04   -0.39166E-04 10977   0.263E-02    0.661E-03
RMM:  21    -0.649859803950E+03   -0.18820E-04   -0.22849E-04 10620   0.229E-02    0.373E-03
RMM:  22    -0.649859817074E+03   -0.13124E-04   -0.15393E-04 10334   0.189E-02    0.257E-03
RMM:  23    -0.649859824604E+03   -0.75296E-05   -0.88918E-05  9654   0.162E-02
   5 F= -.64985982E+03 E0= -.64976157E+03  d E =-.215050E+01
 trial-energy change:   -2.150500  1 .order   -2.210544   -4.355213   -0.065875
 step:   0.8952(harm=  0.8939)  dis= 0.10472  next Energy=  -649.860377 (dE=-0.215E+01)
 bond charge predicted
       N       E                     dE             d eps       ncg     rms          rms(c)
DAV:   1    -0.649858729129E+03    0.10879E-02   -0.17653E-01 10416   0.155E+00    0.937E-02
RMM:   2    -0.649861587249E+03   -0.28581E-02   -0.19096E-02 14185   0.400E-01    0.521E-01
RMM:   3    -0.649860469059E+03    0.11182E-02   -0.17456E-03 13537   0.129E-01    0.112E-01
RMM:   4    -0.649860528652E+03   -0.59593E-04   -0.61028E-04 12743   0.660E-02    0.171E-01
RMM:   5    -0.649860426659E+03    0.10199E-03   -0.22440E-04 11728   0.437E-02    0.806E-02
RMM:   6    -0.649860429964E+03   -0.33055E-05   -0.18354E-04 11333   0.293E-02    0.896E-02
RMM:   7    -0.649860403392E+03    0.26572E-04   -0.87895E-05 10732   0.280E-02    0.591E-02
RMM:   8    -0.649860412670E+03   -0.92783E-05   -0.69831E-05 10054   0.226E-02
   6 F= -.64986041E+03 E0= -.64976220E+03  d E =-.215109E+01
 curvature:  -0.50 expect dE=-0.626E+00 dE for cont linesearch -0.280E-06
 trial: gam= 0.16838 g(F)=  0.910E+00 g(S)=  0.338E+00 ort =-0.177E-02 (trialstep = 0.883E+00)
 search vector abs. value=  0.141E+01
 bond charge predicted
       N       E                     dE             d eps       ncg     rms          rms(c)
DAV:   1    -0.649237147086E+03    0.62326E+00   -0.20944E+02 12096   0.824E+01    0.168E+01
RMM:   2    -0.689888239041E+03   -0.40651E+02   -0.55558E+01 13685   0.217E+01    0.519E+01
RMM:   3    -0.651499224041E+03    0.38389E+02   -0.15553E+01 11737   0.150E+01    0.137E+01
RMM:   4    -0.651060295084E+03    0.43893E+00   -0.32510E+00 14159   0.413E+00    0.101E+01
RMM:   5    -0.650817634494E+03    0.24266E+00   -0.11756E+00 12713   0.338E+00    0.973E+00
RMM:   6    -0.650461239995E+03    0.35639E+00   -0.53404E-01 12726   0.228E+00    0.502E+00
RMM:   7    -0.650409862360E+03    0.51378E-01   -0.32205E-01 13782   0.153E+00    0.458E+00
RMM:   8    -0.650392591496E+03    0.17271E-01   -0.17443E-01 12987   0.129E+00    0.426E+00
RMM:   9    -0.650335036515E+03    0.57555E-01   -0.11653E-01 13340   0.997E-01    0.264E+00
RMM:  10    -0.650311682414E+03    0.23354E-01   -0.57893E-02 13389   0.664E-01    0.141E+00
RMM:  11    -0.650304065455E+03    0.76170E-02   -0.35415E-02 14053   0.422E-01    0.628E-01
RMM:  12    -0.650307204290E+03   -0.31388E-02   -0.19062E-02 13716   0.284E-01    0.974E-01
RMM:  13    -0.650303767163E+03    0.34371E-02   -0.98697E-03 13539   0.226E-01    0.245E-01
RMM:  14    -0.650304583128E+03   -0.81597E-03   -0.78812E-03 13647   0.136E-01    0.152E-01
RMM:  15    -0.650304900394E+03   -0.31727E-03   -0.33977E-03 13175   0.108E-01    0.114E-01
RMM:  16    -0.650305110950E+03   -0.21056E-03   -0.22341E-03 13053   0.844E-02    0.591E-02
RMM:  17    -0.650305208983E+03   -0.98033E-04   -0.13065E-03 12324   0.613E-02    0.398E-02
RMM:  18    -0.650305267702E+03   -0.58720E-04   -0.74422E-04 11759   0.455E-02    0.239E-02
RMM:  19    -0.650305308852E+03   -0.41149E-04   -0.48207E-04 11915   0.369E-02    0.169E-02
RMM:  20    -0.650305333581E+03   -0.24729E-04   -0.28106E-04 11629   0.280E-02    0.697E-03
RMM:  21    -0.650305348334E+03   -0.14754E-04   -0.17174E-04 11111   0.229E-02    0.454E-03
RMM:  22    -0.650305356291E+03   -0.79571E-05   -0.99302E-05 10356   0.186E-02
   7 F= -.65030536E+03 E0= -.65020930E+03  d E =-.444944E+00
 trial-energy change:   -0.444944  1 .order   -0.460105   -1.101886    0.181676
 step:   0.7503(harm=  0.7583)  dis= 0.04449  next Energy=  -650.319089 (dE=-0.459E+00)
 bond charge predicted
       N       E                     dE             d eps       ncg     rms          rms(c)
DAV:   1    -0.650288707093E+03    0.16641E-01   -0.45977E+00 12288   0.127E+01    0.243E+00
RMM:   2    -0.651511459322E+03   -0.12228E+01   -0.18150E+00 11884   0.459E+00    0.136E+01
RMM:   3    -0.650393569147E+03    0.11179E+01   -0.44132E-01 11464   0.256E+00    0.371E+00
RMM:   4    -0.650339232701E+03    0.54336E-01   -0.84640E-02 13003   0.917E-01    0.179E+00
RMM:   5    -0.650339029081E+03    0.20362E-03   -0.33485E-02 13250   0.489E-01    0.200E+00
RMM:   6    -0.650324848532E+03    0.14181E-01   -0.15425E-02 12144   0.405E-01    0.915E-01
RMM:   7    -0.650321535982E+03    0.33126E-02   -0.10233E-02 13392   0.261E-01    0.786E-01
RMM:   8    -0.650320238000E+03    0.12980E-02   -0.45670E-03 12128   0.236E-01    0.598E-01
RMM:   9    -0.650319540480E+03    0.69752E-03   -0.37220E-03 13805   0.153E-01    0.449E-01
RMM:  10    -0.650318792942E+03    0.74754E-03   -0.12499E-03 12123   0.112E-01    0.221E-01
WARNING in EDDRMM: call to ZHEGV failed, returncode =   6  3      6
WARNING in EDDRMM: call to ZHEGV failed, returncode =   6  3      7
RMM:  11    -0.651598939469E+03   -0.12801E+01   -0.12804E+01 12768   0.641E-02    0.485E-01
RMM:  12    -0.649298829322E+03    0.23001E+01   -0.48304E-04 12133   0.380E-02    0.199E-01
RMM:  13    -0.649376017758E+03   -0.77188E-01   -0.16743E-04 11579   0.317E-02    0.119E-01
WARNING in EDDRMM: call to ZHEGV failed, returncode =   8  4      8
RMM:  14    -0.650013572575E+03   -0.63755E+00   -0.11872E+01 10942   0.321E-01    0.731E-02
RMM:  15    -0.650209208584E+03   -0.19564E+00   -0.21199E+00 10899   0.794E-02    0.581E-02
RMM:  16    -0.650266841277E+03   -0.57633E-01   -0.60404E-01 10676   0.467E-02    0.828E-02
RMM:  17    -0.650289635820E+03   -0.22795E-01   -0.24024E-01 10197   0.462E-02    0.326E-02
RMM:  18    -0.650299513559E+03   -0.98777E-02   -0.10732E-01 10134   0.272E-02    0.210E-02
RMM:  19    -0.650306105493E+03   -0.65919E-02   -0.72240E-02  7648   0.232E-02    0.172E-02
RMM:  20    -0.650310100512E+03   -0.39950E-02   -0.44468E-02  6189   0.214E-02    0.191E-02
RMM:  21    -0.650312888938E+03   -0.27884E-02   -0.30685E-02  5917   0.175E-02    0.228E-02
RMM:  22    -0.650314887909E+03   -0.19990E-02   -0.21968E-02  5807   0.157E-02    0.264E-02
RMM:  23    -0.650316125540E+03   -0.12376E-02   -0.13656E-02  5698   0.152E-02    0.293E-02
RMM:  24    -0.650317114930E+03   -0.98939E-03   -0.10718E-02  5348   0.135E-02    0.344E-02
RMM:  25    -0.650317703579E+03   -0.58865E-03   -0.64340E-03  5142   0.127E-02    0.389E-02
RMM:  26    -0.650318084838E+03   -0.38126E-03   -0.41108E-03  4954   0.108E-02    0.421E-02
RMM:  27    -0.650318308536E+03   -0.22370E-03   -0.24413E-03  4597   0.994E-03    0.433E-02
RMM:  28    -0.650318452459E+03   -0.14392E-03   -0.15490E-03  4546   0.860E-03    0.465E-02
RMM:  29    -0.650318538439E+03   -0.85980E-04   -0.93170E-04  4689   0.865E-03    0.496E-02
RMM:  30    -0.650318593006E+03   -0.54568E-04   -0.58865E-04  4611   0.745E-03    0.513E-02
RMM:  31    -0.650318625764E+03   -0.32758E-04   -0.35779E-04  4280   0.715E-03    0.521E-02
RMM:  32    -0.650318646830E+03   -0.21066E-04   -0.22642E-04  4137   0.632E-03    0.540E-02
RMM:  33    -0.650318659829E+03   -0.12999E-04   -0.13930E-04  4384   0.609E-03    0.558E-02
RMM:  34    -0.650318668047E+03   -0.82182E-05   -0.88870E-05  4292   0.587E-03
   8 F= -.65031867E+03 E0= -.65022228E+03  d E =-.458255E+00
 curvature:  -0.43 expect dE=-0.381E+00 dE for cont linesearch -0.151E-04
 trial: gam= 0.72643 g(F)=  0.376E+00 g(S)=  0.519E+00 ort =-0.706E-02 (trialstep = 0.741E+00)
 search vector abs. value=  0.163E+01
 bond charge predicted
       N       E                     dE             d eps       ncg     rms          rms(c)
DAV:   1    -0.646673446424E+03    0.36452E+01   -0.18309E+02 11184   0.856E+01    0.678E+00
RMM:   2    -0.658281504002E+03   -0.11608E+02   -0.56164E+01 13722   0.203E+01    0.306E+01
RMM:   3    -0.650827484862E+03    0.74540E+01   -0.57743E+00 11889   0.894E+00    0.583E+00
RMM:   4    -0.650974404442E+03   -0.14692E+00   -0.20138E+00 14043   0.304E+00    0.654E+00
RMM:   5    -0.650722168769E+03    0.25224E+00   -0.32996E-01 13262   0.182E+00    0.218E+00
RMM:   6    -0.650751671929E+03   -0.29503E-01   -0.21030E-01 13831   0.106E+00    0.403E+00
RMM:   7    -0.650690553649E+03    0.61118E-01   -0.10337E-01 13464   0.989E-01    0.209E+00
RMM:   8    -0.650758587663E+03   -0.68034E-01   -0.11347E-01 13166   0.955E-01    0.449E+00
RMM:   9    -0.650666268833E+03    0.92319E-01   -0.68832E-02 12903   0.822E-01    0.998E-01
RMM:  10    -0.650668881963E+03   -0.26131E-02   -0.37256E-02 13724   0.422E-01    0.117E+00
RMM:  11    -0.650663628937E+03    0.52530E-02   -0.15500E-02 13873   0.290E-01    0.440E-01
RMM:  12    -0.650665231078E+03   -0.16021E-02   -0.10061E-02 13453   0.195E-01    0.624E-01
RMM:  13    -0.650663730719E+03    0.15004E-02   -0.51522E-03 13551   0.150E-01    0.153E-01
RMM:  14    -0.650664090039E+03   -0.35932E-03   -0.32838E-03 13088   0.880E-02    0.917E-02
RMM:  15    -0.650664241323E+03   -0.15128E-03   -0.15554E-03 12616   0.688E-02    0.481E-02
RMM:  16    -0.650664347828E+03   -0.10650E-03   -0.99485E-04 12211   0.516E-02    0.268E-02
WARNING in EDDRMM: call to ZHEGV failed, returncode =   8  4     10
RMM:  17    -0.650664390819E+03   -0.42992E-04   -0.52861E-04 11618   0.407E-02    0.181E-02
RMM:  18    -0.650664421501E+03   -0.30682E-04   -0.35444E-04 11281   0.311E-02    0.115E-02
RMM:  19    -0.650664437939E+03   -0.16439E-04   -0.20407E-04 11272   0.251E-02    0.572E-03
RMM:  20    -0.650664447939E+03   -0.99991E-05   -0.12310E-04 10379   0.198E-02    0.318E-03
RMM:  21    -0.650664454268E+03   -0.63297E-05   -0.76924E-05 10046   0.171E-02
   9 F= -.65066445E+03 E0= -.65057781E+03  d E =-.345786E+00
 trial-energy change:   -0.345786  1 .order   -0.330702   -0.658815   -0.002590
 step:   0.7432(harm=  0.7436)  dis= 0.04254  next Energy=  -650.664459 (dE=-0.346E+00)
 bond charge predicted
       N       E                     dE             d eps       ncg     rms          rms(c)
DAV:   1    -0.650664417725E+03    0.30214E-04   -0.23308E-03 12600   0.302E-01    0.242E-02
RMM:   2    -0.650664572813E+03   -0.15509E-03   -0.65568E-04 12576   0.670E-02    0.129E-01
RMM:   3    -0.650664479083E+03    0.93730E-04   -0.77890E-05  8341   0.358E-02    0.413E-02
RMM:   4    -0.650664474200E+03    0.48831E-05   -0.28770E-05  6757   0.187E-02
  10 F= -.65066447E+03 E0= -.65057787E+03  d E =-.345806E+00
 curvature:  -0.67 expect dE=-0.272E+00 dE for cont linesearch -0.647E-06
 trial: gam= 0.39053 g(F)=  0.389E+00 g(S)=  0.162E-01 ort =-0.125E-02 (trialstep = 0.741E+00)
 search vector abs. value=  0.653E+00
 bond charge predicted
       N       E                     dE             d eps       ncg     rms          rms(c)
DAV:   1    -0.649218518110E+03    0.14460E+01   -0.70051E+01  9072   0.498E+01    0.195E+00
RMM:   2    -0.650935453596E+03   -0.17169E+01   -0.17110E+01 14203   0.103E+01    0.437E+00
RMM:   3    -0.650912813130E+03    0.22640E-01   -0.10398E+00 13910   0.302E+00    0.284E+00
RMM:   4    -0.650922399064E+03   -0.95859E-02   -0.28840E-01 13707   0.142E+00    0.260E+00
RMM:   5    -0.650893989407E+03    0.28410E-01   -0.69500E-02 13652   0.726E-01    0.112E+00
RMM:   6    -0.650892875007E+03    0.11144E-02   -0.37020E-02 14023   0.370E-01    0.933E-01
RMM:   7    -0.650890317659E+03    0.25573E-02   -0.18424E-02 13708   0.299E-01    0.784E-01
RMM:   8    -0.650892549912E+03   -0.22323E-02   -0.13868E-02 13631   0.292E-01    0.109E+00
RMM:   9    -0.650885938394E+03    0.66115E-02   -0.12409E-02 13585   0.282E-01    0.237E-01
RMM:  10    -0.650887426314E+03   -0.14879E-02   -0.52735E-03 13293   0.163E-01    0.518E-01
RMM:  11    -0.650886105051E+03    0.13213E-02   -0.25934E-03 12435   0.130E-01    0.102E-01
RMM:  12    -0.650886331764E+03   -0.22671E-03   -0.19162E-03 12564   0.707E-02    0.198E-01
RMM:  13    -0.650886196399E+03    0.13537E-03   -0.80952E-04 11882   0.645E-02    0.591E-02
RMM:  14    -0.650886220243E+03   -0.23845E-04   -0.63262E-04 11599   0.364E-02    0.207E-02
RMM:  15    -0.650886238643E+03   -0.18400E-04   -0.27025E-04 11218   0.318E-02    0.125E-02
WARNING in EDDRMM: call to ZHEGV failed, returncode =   8  4      6
RMM:  16    -0.650886250662E+03   -0.12019E-04   -0.14859E-04  9868   0.210E-02    0.631E-03
RMM:  17    -0.650886259752E+03   -0.90899E-05   -0.10766E-04 10389   0.195E-02    0.382E-03
RMM:  18    -0.650886263514E+03   -0.37626E-05   -0.51712E-05  8488   0.147E-02
  11 F= -.65088626E+03 E0= -.65080452E+03  d E =-.221789E+00
 trial-energy change:   -0.221789  1 .order   -0.219034   -0.300228   -0.137840
 step:   1.2765(harm=  1.3703)  dis= 0.05222  next Energy=  -650.937076 (dE=-0.273E+00)
 bond charge predicted
       N       E                     dE             d eps       ncg     rms          rms(c)
DAV:   1    -0.650069639159E+03    0.81662E+00   -0.36521E+01  9072   0.358E+01    0.139E+00
RMM:   2    -0.650936549761E+03   -0.86691E+00   -0.88085E+00 14186   0.742E+00    0.250E+00
RMM:   3    -0.650961113925E+03   -0.24564E-01   -0.56668E-01 14027   0.222E+00    0.236E+00
RMM:   4    -0.650950744402E+03    0.10370E-01   -0.13874E-01 13517   0.103E+00    0.151E+00
RMM:   5    -0.650943145247E+03    0.75992E-02   -0.40798E-02 13969   0.503E-01    0.789E-01
RMM:   6    -0.650942361241E+03    0.78401E-03   -0.17135E-02 13921   0.262E-01    0.634E-01
RMM:   7    -0.650941032158E+03    0.13291E-02   -0.90339E-03 13545   0.219E-01    0.494E-01
RMM:   8    -0.650942575781E+03   -0.15436E-02   -0.81576E-03 13672   0.223E-01    0.823E-01
RMM:   9    -0.650939075746E+03    0.35000E-02   -0.51301E-03 13216   0.198E-01    0.167E-01
RMM:  10    -0.650939692918E+03   -0.61717E-03   -0.27636E-03 12900   0.107E-01    0.334E-01
RMM:  11    -0.650939173685E+03    0.51923E-03   -0.12742E-03 12049   0.938E-02    0.820E-02
RMM:  12    -0.650939212080E+03   -0.38395E-04   -0.95210E-04 12065   0.465E-02    0.884E-02
RMM:  13    -0.650939217208E+03   -0.51276E-05   -0.38541E-04 11599   0.453E-02    0.674E-02
RMM:  14    -0.650939218159E+03   -0.95142E-06   -0.34245E-04 11446   0.278E-02    0.155E-02
RMM:  15    -0.650939226832E+03   -0.86726E-05   -0.13946E-04 10726   0.241E-02    0.883E-03
RMM:  16    -0.650939232498E+03   -0.56660E-05   -0.73902E-05  9303   0.169E-02
  12 F= -.65093923E+03 E0= -.65085997E+03  d E =-.274758E+00
 curvature:  -1.08 expect dE=-0.316E+00 dE for cont linesearch -0.975E-04
 trial: gam= 0.55182 g(F)=  0.259E+00 g(S)=  0.342E-01 ort = 0.768E-02 (trialstep = 0.848E+00)
 search vector abs. value=  0.500E+00
 bond charge predicted
       N       E                     dE             d eps       ncg     rms          rms(c)
DAV:   1    -0.650198304691E+03    0.74092E+00   -0.64109E+01 10920   0.409E+01    0.443E+00
RMM:   2    -0.653697700852E+03   -0.34994E+01   -0.13027E+01 14069   0.102E+01    0.182E+01
RMM:   3    -0.651156996924E+03    0.25407E+01   -0.17299E+00 11711   0.508E+00    0.382E+00
RMM:   4    -0.651191530671E+03   -0.34534E-01   -0.53552E-01 13791   0.183E+00    0.454E+00
RMM:   5    -0.651101384161E+03    0.90147E-01   -0.14172E-01 13315   0.115E+00    0.232E+00
RMM:   6    -0.651094065876E+03    0.73183E-02   -0.74501E-02 13341   0.761E-01    0.218E+00
RMM:   7    -0.651070917828E+03    0.23148E-01   -0.45707E-02 13985   0.524E-01    0.740E-01
RMM:   8    -0.651084063319E+03   -0.13145E-01   -0.32770E-02 13470   0.495E-01    0.174E+00
RMM:   9    -0.651066770556E+03    0.17293E-01   -0.14372E-02 12782   0.391E-01    0.248E-01
RMM:  10    -0.651067641765E+03   -0.87121E-03   -0.10572E-02 13762   0.164E-01    0.343E-01
RMM:  11    -0.651067457203E+03    0.18456E-03   -0.36305E-03 12922   0.151E-01    0.225E-01
RMM:  12    -0.651067417610E+03    0.39593E-04   -0.30125E-03 12804   0.811E-02    0.745E-02
RMM:  13    -0.651067580868E+03   -0.16326E-03   -0.13326E-03 12510   0.670E-02    0.120E-01
RMM:  14    -0.651067613893E+03   -0.33025E-04   -0.86146E-04 12071   0.525E-02    0.772E-02
RMM:  15    -0.651067636069E+03   -0.22176E-04   -0.52373E-04 12031   0.391E-02    0.260E-02
RMM:  16    -0.651067656019E+03   -0.19950E-04   -0.27762E-04 11288   0.296E-02    0.126E-02
WARNING in EDDRMM: call to ZHEGV failed, returncode =   8  4      5
WARNING in EDDRMM: call to ZHEGV failed, returncode =   6  3      5
RMM:  17    -0.651067670399E+03   -0.14380E-04   -0.17744E-04 11159   0.243E-02    0.875E-03
RMM:  18    -0.651067678570E+03   -0.81713E-05   -0.98229E-05 10346   0.197E-02
  13 F= -.65106768E+03 E0= -.65098896E+03  d E =-.128446E+00
 trial-energy change:   -0.128446  1 .order   -0.129206   -0.251973   -0.006438
 step:   0.8709(harm=  0.8705)  dis= 0.02913  next Energy=  -651.067765 (dE=-0.129E+00)
 bond charge predicted
       N       E                     dE             d eps       ncg     rms          rms(c)
DAV:   1    -0.651067153167E+03    0.51723E-03   -0.45596E-02 11952   0.110E+00    0.116E-01
RMM:   2    -0.651069762612E+03   -0.26094E-02   -0.98093E-03 13900   0.284E-01    0.534E-01
RMM:   3    -0.651067916035E+03    0.18466E-02   -0.13562E-03 11299   0.142E-01    0.157E-01
RMM:   4    -0.651067859003E+03    0.57032E-04   -0.44640E-04 12007   0.601E-02    0.104E-01
RMM:   5    -0.651067829142E+03    0.29862E-04   -0.15369E-04 11256   0.341E-02    0.750E-02
RMM:   6    -0.651067808136E+03    0.21006E-04   -0.65606E-05  9419   0.258E-02    0.447E-02
RMM:   7    -0.651067797693E+03    0.10443E-04   -0.50863E-05  9169   0.197E-02    0.225E-02
RMM:   8    -0.651067806618E+03   -0.89256E-05   -0.30074E-05  6633   0.199E-02
  14 F= -.65106781E+03 E0= -.65098910E+03  d E =-.128574E+00
 curvature:  -0.73 expect dE=-0.131E+00 dE for cont linesearch -0.203E-06
 trial: gam= 0.59742 g(F)=  0.788E-01 g(S)=  0.996E-01 ort = 0.372E-03 (trialstep = 0.853E+00)
 search vector abs. value=  0.357E+00
 bond charge predicted
       N       E                     dE             d eps       ncg     rms          rms(c)
DAV:   1    -0.650601670169E+03    0.46613E+00   -0.45969E+01 11136   0.371E+01    0.520E+00
RMM:   2    -0.655172310190E+03   -0.45706E+01   -0.12907E+01 12203   0.121E+01    0.229E+01
RMM:   3    -0.651308050826E+03    0.38643E+01   -0.23481E+00 11870   0.571E+00    0.531E+00
RMM:   4    -0.651254410654E+03    0.53640E-01   -0.57601E-01 13783   0.196E+00    0.423E+00
RMM:   5    -0.651184090524E+03    0.70320E-01   -0.15621E-01 13339   0.112E+00    0.261E+00
RMM:   6    -0.651165730092E+03    0.18360E-01   -0.80056E-02 12591   0.886E-01    0.214E+00
RMM:   7    -0.651137322227E+03    0.28408E-01   -0.53659E-02 13769   0.629E-01    0.892E-01
RMM:   8    -0.651158554771E+03   -0.21233E-01   -0.36774E-02 12727   0.604E-01    0.215E+00
RMM:   9    -0.651132705998E+03    0.25849E-01   -0.18022E-02 12707   0.457E-01    0.289E-01
RMM:  10    -0.651134390211E+03   -0.16842E-02   -0.12283E-02 13741   0.194E-01    0.563E-01
RMM:  11    -0.651133151201E+03    0.12390E-02   -0.39496E-03 12937   0.154E-01    0.156E-01
RMM:  12    -0.651133294647E+03   -0.14345E-03   -0.26576E-03 12780   0.770E-02    0.935E-02
RMM:  13    -0.651133581298E+03   -0.28665E-03   -0.12391E-03 12569   0.749E-02    0.184E-01
RMM:  14    -0.651133543360E+03    0.37938E-04   -0.95626E-04 12621   0.619E-02    0.461E-02
RMM:  15    -0.651133594334E+03   -0.50974E-04   -0.57927E-04 12010   0.419E-02    0.224E-02
WARNING in EDDRMM: call to ZHEGV failed, returncode =   8  4     10
RMM:  16    -0.651133616623E+03   -0.22289E-04   -0.29551E-04 11352   0.305E-02    0.165E-02
RMM:  17    -0.651133632723E+03   -0.16100E-04   -0.18531E-04 11389   0.254E-02    0.120E-02
RMM:  18    -0.651133640366E+03   -0.76436E-05   -0.98300E-05 10336   0.198E-02
  15 F= -.65113364E+03 E0= -.65105661E+03  d E =-.658337E-01
 trial-energy change:   -0.065834  1 .order   -0.064127   -0.152333    0.024079
 step:   0.7420(harm=  0.7364)  dis= 0.01985  next Energy=  -651.135201 (dE=-0.674E-01)
 bond charge predicted
       N       E                     dE             d eps       ncg     rms          rms(c)
DAV:   1    -0.651127691157E+03    0.59416E-02   -0.79261E-01 11784   0.481E+00    0.700E-01
RMM:   2    -0.651206781725E+03   -0.79091E-01   -0.19423E-01 12556   0.143E+00    0.309E+00
RMM:   3    -0.651139234549E+03    0.67547E-01   -0.38710E-02 11711   0.764E-01    0.822E-01
RMM:   4    -0.651137437322E+03    0.17972E-02   -0.98456E-03 13502   0.272E-01    0.574E-01
RMM:   5    -0.651136254861E+03    0.11825E-02   -0.29093E-03 12775   0.154E-01    0.369E-01
RMM:   6    -0.651135823005E+03    0.43186E-03   -0.14456E-03 11746   0.124E-01    0.282E-01
RMM:   7    -0.651135337539E+03    0.48547E-03   -0.93642E-04 12957   0.832E-02    0.120E-01
RMM:   8    -0.651135593136E+03   -0.25560E-03   -0.54617E-04 11702   0.804E-02    0.245E-01
RMM:   9    -0.651135238211E+03    0.35493E-03   -0.27661E-04 11348   0.561E-02    0.367E-02
RMM:  10    -0.651135267738E+03   -0.29527E-04   -0.17202E-04 11402   0.304E-02    0.795E-02
RMM:  11    -0.651135238899E+03    0.28839E-04   -0.58940E-05  9165   0.227E-02    0.211E-02
RMM:  12    -0.651135240563E+03   -0.16645E-05   -0.42596E-05  8134   0.166E-02
  16 F= -.65113524E+03 E0= -.65105799E+03  d E =-.674339E-01
 curvature:  -0.73 expect dE=-0.771E-01 dE for cont linesearch -0.868E-08
 trial: gam= 0.57171 g(F)=  0.795E-01 g(S)=  0.254E-01 ort = 0.650E-04 (trialstep = 0.831E+00)
 search vector abs. value=  0.222E+00
 bond charge predicted
       N       E                     dE             d eps       ncg     rms          rms(c)
DAV:   1    -0.650623956809E+03    0.51128E+00   -0.28365E+01  9264   0.308E+01    0.129E+00
RMM:   2    -0.651184546624E+03   -0.56059E+00   -0.56707E+00 14169   0.615E+00    0.209E+00
RMM:   3    -0.651200886880E+03   -0.16340E-01   -0.46333E-01 13581   0.255E+00    0.185E+00
RMM:   4    -0.651194652311E+03    0.62346E-02   -0.11063E-01 13391   0.111E+00    0.109E+00
RMM:   5    -0.651192441095E+03    0.22112E-02   -0.47791E-02 14146   0.550E-01    0.585E-01
WARNING in EDDRMM: call to ZHEGV failed, returncode =   8  4      5
RMM:   6    -0.651192070596E+03    0.37050E-03   -0.16031E-02 14186   0.257E-01    0.573E-01
RMM:   7    -0.651192508974E+03   -0.43838E-03   -0.70868E-03 13294   0.230E-01    0.659E-01
RMM:   8    -0.651191126249E+03    0.13827E-02   -0.72839E-03 13788   0.219E-01    0.559E-01
RMM:   9    -0.651190034378E+03    0.10919E-02   -0.29697E-03 13357   0.155E-01    0.259E-01
RMM:  10    -0.651190214804E+03   -0.18043E-03   -0.23615E-03 12798   0.950E-02    0.261E-01
RMM:  11    -0.651189955881E+03    0.25892E-03   -0.11024E-03 12215   0.810E-02    0.979E-02
RMM:  12    -0.651189941616E+03    0.14265E-04   -0.76955E-04 11874   0.426E-02    0.430E-02
RMM:  13    -0.651189988241E+03   -0.46626E-04   -0.34767E-04 11736   0.374E-02    0.785E-02
RMM:  14    -0.651189976746E+03    0.11495E-04   -0.25469E-04 11206   0.298E-02    0.181E-02
RMM:  15    -0.651189983859E+03   -0.71127E-05   -0.12143E-04 10381   0.215E-02    0.109E-02
RMM:  16    -0.651189988264E+03   -0.44052E-05   -0.70739E-05  9821   0.185E-02
  17 F= -.65118999E+03 E0= -.65111286E+03  d E =-.547477E-01
 trial-energy change:   -0.054748  1 .order   -0.054783   -0.087174   -0.022393
 step:   1.1178(harm=  1.1178)  dis= 0.02482  next Energy=  -651.193894 (dE=-0.587E-01)
 bond charge predicted
       N       E                     dE             d eps       ncg     rms          rms(c)
DAV:   1    -0.651124027900E+03    0.65956E-01   -0.33647E+00  9072   0.107E+01    0.449E-01
RMM:   2    -0.651196689797E+03   -0.72662E-01   -0.72629E-01 14259   0.215E+00    0.762E-01
RMM:   3    -0.651195479943E+03    0.12099E-02   -0.44358E-02 13829   0.725E-01    0.606E-01
RMM:   4    -0.651195026236E+03    0.45371E-03   -0.12901E-02 13356   0.341E-01    0.452E-01
RMM:   5    -0.651194324520E+03    0.70172E-03   -0.43438E-03 13749   0.172E-01    0.228E-01
RMM:   6    -0.651194389332E+03   -0.64812E-04   -0.20694E-03 13348   0.926E-02    0.256E-01
RMM:   7    -0.651194230964E+03    0.15837E-03   -0.99737E-04 12449   0.823E-02    0.181E-01
RMM:   8    -0.651194244186E+03   -0.13222E-04   -0.10645E-03 13477   0.806E-02    0.216E-01
RMM:   9    -0.651193998483E+03    0.24570E-03   -0.39775E-04 11983   0.661E-02    0.464E-02
RMM:  10    -0.651194018174E+03   -0.19691E-04   -0.30982E-04 11570   0.307E-02    0.488E-02
RMM:  11    -0.651194026532E+03   -0.83581E-05   -0.13107E-04 11303   0.293E-02    0.530E-02
RMM:  12    -0.651194017889E+03    0.86427E-05   -0.10310E-04 10477   0.190E-02    0.164E-02
RMM:  13    -0.651194022831E+03   -0.49411E-05   -0.53272E-05  9881   0.162E-02
  18 F= -.65119402E+03 E0= -.65111695E+03  d E =-.587823E-01
 curvature:  -1.18 expect dE=-0.525E-01 dE for cont linesearch -0.360E-06
 trial: gam= 0.36619 g(F)=  0.436E-01 g(S)=  0.829E-03 ort = 0.260E-03 (trialstep = 0.888E+00)
 search vector abs. value=  0.744E-01
 bond charge predicted
       N       E                     dE             d eps       ncg     rms          rms(c)
DAV:   1    -0.650987635809E+03    0.20638E+00   -0.10791E+01  9072   0.194E+01    0.801E-01
RMM:   2    -0.651224912733E+03   -0.23728E+00   -0.24306E+00 14252   0.393E+00    0.120E+00
RMM:   3    -0.651231697041E+03   -0.67843E-02   -0.13985E-01 14001   0.115E+00    0.139E+00
RMM:   4    -0.651225205694E+03    0.64913E-02   -0.35830E-02 13449   0.584E-01    0.731E-01
RMM:   5    -0.651223502620E+03    0.17031E-02   -0.12564E-02 14024   0.274E-01    0.440E-01
RMM:   6    -0.651223812796E+03   -0.31018E-03   -0.60545E-03 13569   0.175E-01    0.496E-01
RMM:   7    -0.651222874791E+03    0.93800E-03   -0.34155E-03 13122   0.152E-01    0.262E-01
RMM:   8    -0.651222923915E+03   -0.49124E-04   -0.31103E-03 13748   0.133E-01    0.345E-01
RMM:   9    -0.651222399983E+03    0.52393E-03   -0.12039E-03 12551   0.102E-01    0.125E-01
RMM:  10    -0.651222527281E+03   -0.12730E-03   -0.10376E-03 12190   0.612E-02    0.163E-01
RMM:  11    -0.651222418039E+03    0.10924E-03   -0.46868E-04 11850   0.516E-02    0.477E-02
RMM:  12    -0.651222420301E+03   -0.22623E-05   -0.30238E-04 11115   0.267E-02    0.171E-02
WARNING in EDDRMM: call to ZHEGV failed, returncode =   6  3      5
RMM:  13    -0.651222432348E+03   -0.12047E-04   -0.14730E-04 11075   0.240E-02    0.283E-02
RMM:  14    -0.651222436857E+03   -0.45082E-05   -0.86584E-05  9915   0.195E-02
  19 F= -.65122244E+03 E0= -.65114576E+03  d E =-.284140E-01
 trial-energy change:   -0.028414  1 .order   -0.028322   -0.039551   -0.017094
 step:   1.5365(harm=  1.5640)  dis= 0.02122  next Energy=  -651.228713 (dE=-0.347E-01)
 bond charge predicted
       N       E                     dE             d eps       ncg     rms          rms(c)
DAV:   1    -0.651104043889E+03    0.11839E+00   -0.57534E+00  9072   0.141E+01    0.584E-01
RMM:   2    -0.651230420571E+03   -0.12638E+00   -0.12945E+00 14246   0.287E+00    0.859E-01
RMM:   3    -0.651234023692E+03   -0.36031E-02   -0.74972E-02 14025   0.834E-01    0.101E+00
RMM:   4    -0.651230808194E+03    0.32155E-02   -0.19381E-02 13455   0.428E-01    0.565E-01
RMM:   5    -0.651229708274E+03    0.10999E-02   -0.68099E-03 13906   0.203E-01    0.316E-01
RMM:   6    -0.651229919884E+03   -0.21161E-03   -0.34071E-03 13284   0.130E-01    0.362E-01
RMM:   7    -0.651229396650E+03    0.52323E-03   -0.19609E-03 12965   0.113E-01    0.181E-01
RMM:   8    -0.651229384375E+03    0.12275E-04   -0.16605E-03 13641   0.968E-02    0.223E-01
RMM:   9    -0.651229174236E+03    0.21014E-03   -0.64412E-04 12130   0.747E-02    0.930E-02
RMM:  10    -0.651229236639E+03   -0.62403E-04   -0.55837E-04 11830   0.443E-02    0.117E-01
RMM:  11    -0.651229184469E+03    0.52170E-04   -0.25670E-04 11575   0.390E-02    0.374E-02
RMM:  12    -0.651229183267E+03    0.12020E-05   -0.15211E-04 10482   0.209E-02    0.125E-02
RMM:  13    -0.651229190317E+03   -0.70494E-05   -0.87926E-05 10638   0.193E-02
  20 F= -.65122919E+03 E0= -.65115289E+03  d E =-.351675E-01
 curvature:  -1.30 expect dE=-0.467E-01 dE for cont linesearch -0.233E-04
 trial: gam= 0.77738 g(F)=  0.285E-01 g(S)=  0.726E-02 ort = 0.115E-02 (trialstep = 0.917E+00)
 search vector abs. value=  0.825E-01
 bond charge predicted
       N       E                     dE             d eps       ncg     rms          rms(c)
DAV:   1    -0.651010837199E+03    0.21835E+00   -0.12544E+01  9864   0.205E+01    0.176E+00
RMM:   2    -0.651667384278E+03   -0.65655E+00   -0.32454E+00 14051   0.477E+00    0.761E+00
RMM:   3    -0.651276321540E+03    0.39106E+00   -0.33291E-01 11954   0.217E+00    0.224E+00
RMM:   4    -0.651270300110E+03    0.60214E-02   -0.10975E-01 13607   0.826E-01    0.183E+00
RMM:   5    -0.651257584382E+03    0.12716E-01   -0.28318E-02 13469   0.478E-01    0.104E+00
RMM:   6    -0.651253683105E+03    0.39013E-02   -0.13852E-02 13071   0.329E-01    0.703E-01
RMM:   7    -0.651251315060E+03    0.23680E-02   -0.86948E-03 13909   0.226E-01    0.453E-01
RMM:   8    -0.651253457533E+03   -0.21425E-02   -0.56832E-03 12792   0.237E-01    0.774E-01
RMM:   9    -0.651250158700E+03    0.32988E-02   -0.38401E-03 13351   0.189E-01    0.192E-01
RMM:  10    -0.651250339919E+03   -0.18122E-03   -0.22196E-03 12942   0.954E-02    0.231E-01
RMM:  11    -0.651250130118E+03    0.20980E-03   -0.93177E-04 12503   0.672E-02    0.499E-02
RMM:  12    -0.651250179703E+03   -0.49585E-04   -0.59123E-04 12077   0.372E-02    0.518E-02
RMM:  13    -0.651250210142E+03   -0.30439E-04   -0.23374E-04 11768   0.347E-02    0.643E-02
WARNING in EDDRMM: call to ZHEGV failed, returncode =   6  3      9
RMM:  14    -0.651250215713E+03   -0.55708E-05   -0.19218E-04 11220   0.247E-02    0.179E-02
RMM:  15    -0.651250225181E+03   -0.94684E-05   -0.90392E-05 10690   0.204E-02
  21 F= -.65125023E+03 E0= -.65117525E+03  d E =-.210349E-01
 trial-energy change:   -0.021035  1 .order   -0.021007   -0.033648   -0.008365
 step:   1.2206(harm=  1.2206)  dis= 0.01435  next Energy=  -651.251581 (dE=-0.224E-01)
 bond charge predicted
       N       E                     dE             d eps       ncg     rms          rms(c)
DAV:   1    -0.651224613208E+03    0.25603E-01   -0.13671E+00 10368   0.675E+00    0.582E-01
RMM:   2    -0.651295371129E+03   -0.70758E-01   -0.35357E-01 14130   0.157E+00    0.246E+00
RMM:   3    -0.651254190238E+03    0.41181E-01   -0.37423E-02 11956   0.718E-01    0.726E-01
RMM:   4    -0.651253726357E+03    0.46388E-03   -0.11906E-02 13412   0.270E-01    0.612E-01
RMM:   5    -0.651252286001E+03    0.14404E-02   -0.30857E-03 13035   0.158E-01    0.341E-01
RMM:   6    -0.651251882930E+03    0.40307E-03   -0.15439E-03 12117   0.111E-01    0.233E-01
RMM:   7    -0.651251638823E+03    0.24411E-03   -0.98228E-04 13353   0.790E-02    0.150E-01
RMM:   8    -0.651251862514E+03   -0.22369E-03   -0.64487E-04 12211   0.820E-02    0.249E-01
RMM:   9    -0.651251526919E+03    0.33560E-03   -0.43920E-04 12595   0.632E-02    0.638E-02
WARNING in EDDRMM: call to ZHEGV failed, returncode =   8  4      6
RMM:  10    -0.651251549960E+03   -0.23041E-04   -0.26620E-04 11836   0.362E-02    0.763E-02
RMM:  11    -0.651251529305E+03    0.20655E-04   -0.11909E-04 11128   0.254E-02    0.174E-02
RMM:  12    -0.651251536653E+03   -0.73484E-05   -0.68207E-05  9613   0.150E-02
  22 F= -.65125154E+03 E0= -.65117705E+03  d E =-.223463E-01
 curvature:  -1.37 expect dE=-0.639E-01 dE for cont linesearch -0.189E-05
 trial: gam= 1.32653 g(F)=  0.157E-01 g(S)=  0.308E-01 ort =-0.337E-03 (trialstep = 0.423E+00)
 search vector abs. value=  0.191E+00
 bond charge predicted
       N       E                     dE             d eps       ncg     rms          rms(c)
DAV:   1    -0.651130798092E+03    0.12073E+00   -0.63178E+00  9840   0.148E+01    0.114E+00
RMM:   2    -0.651405833556E+03   -0.27504E+00   -0.16069E+00 14291   0.329E+00    0.439E+00
RMM:   3    -0.651274570789E+03    0.13126E+00   -0.16017E-01 12011   0.144E+00    0.139E+00
RMM:   4    -0.651276176579E+03   -0.16058E-02   -0.49560E-02 13629   0.546E-01    0.136E+00
RMM:   5    -0.651267612532E+03    0.85640E-02   -0.12903E-02 13378   0.320E-01    0.443E-01
RMM:   6    -0.651267718273E+03   -0.10574E-03   -0.64097E-03 13536   0.193E-01    0.530E-01
RMM:   7    -0.651266266729E+03    0.14515E-02   -0.30394E-03 13556   0.155E-01    0.217E-01
RMM:   8    -0.651266702344E+03   -0.43562E-03   -0.27518E-03 13796   0.132E-01    0.392E-01
RMM:   9    -0.651265908113E+03    0.79423E-03   -0.10170E-03 12042   0.104E-01    0.112E-01
RMM:  10    -0.651266015280E+03   -0.10717E-03   -0.87512E-04 12636   0.587E-02    0.158E-01
WARNING in EDDRMM: call to ZHEGV failed, returncode =   6  3      5
RMM:  11    -0.651265917433E+03    0.97848E-04   -0.38493E-04 12179   0.490E-02    0.500E-02
RMM:  12    -0.651265919549E+03   -0.21163E-05   -0.23128E-04 11227   0.242E-02    0.290E-02
RMM:  13    -0.651265937287E+03   -0.17738E-04   -0.12472E-04 11159   0.233E-02    0.486E-02
RMM:  14    -0.651265931660E+03    0.56264E-05   -0.95384E-05 10469   0.201E-02
  23 F= -.65126593E+03 E0= -.65119201E+03  d E =-.143950E-01
 trial-energy change:   -0.014395  1 .order   -0.014259   -0.019489   -0.009029
 step:   0.7437(harm=  0.7878)  dis= 0.01681  next Energy=  -651.269418 (dE=-0.179E-01)
 bond charge predicted
       N       E                     dE             d eps       ncg     rms          rms(c)
DAV:   1    -0.651194231844E+03    0.71705E-01   -0.36627E+00  9888   0.113E+01    0.870E-01
RMM:   2    -0.651354178576E+03   -0.15995E+00   -0.91604E-01 14263   0.247E+00    0.340E+00
RMM:   3    -0.651275057643E+03    0.79121E-01   -0.86815E-02 12008   0.109E+00    0.108E+00
RMM:   4    -0.651275482908E+03   -0.42527E-03   -0.28204E-02 13554   0.415E-01    0.101E+00
RMM:   5    -0.651270762324E+03    0.47206E-02   -0.75581E-03 13358   0.241E-01    0.346E-01
RMM:   6    -0.651270765166E+03   -0.28416E-05   -0.36626E-03 13321   0.149E-01    0.394E-01
RMM:   7    -0.651269952166E+03    0.81300E-03   -0.18260E-03 13464   0.117E-01    0.162E-01
RMM:   8    -0.651270256079E+03   -0.30391E-03   -0.15985E-03 13614   0.103E-01    0.309E-01
RMM:   9    -0.651269750488E+03    0.50559E-03   -0.61046E-04 11864   0.821E-02    0.786E-02
RMM:  10    -0.651269821904E+03   -0.71416E-04   -0.53692E-04 12314   0.441E-02    0.122E-01
RMM:  11    -0.651269764369E+03    0.57535E-04   -0.22855E-04 11914   0.386E-02    0.379E-02
RMM:  12    -0.651269765853E+03   -0.14845E-05   -0.13683E-04 10562   0.195E-02    0.222E-02
RMM:  13    -0.651269777047E+03   -0.11194E-04   -0.79311E-05 10663   0.191E-02    0.383E-02
RMM:  14    -0.651269772944E+03    0.41024E-05   -0.58553E-05  9596   0.173E-02
  24 F= -.65126977E+03 E0= -.65119632E+03  d E =-.182363E-01
 curvature:  -1.61 expect dE=-0.297E-01 dE for cont linesearch -0.482E-04
 trial: gam= 0.28106 g(F)=  0.163E-01 g(S)=  0.218E-02 ort = 0.239E-02 (trialstep = 0.487E+00)
 search vector abs. value=  0.349E-01
 bond charge predicted
       N       E                     dE             d eps       ncg     rms          rms(c)
DAV:   1    -0.651236627996E+03    0.33149E-01   -0.16926E+00  9456   0.814E+00    0.336E-01
RMM:   2    -0.651277698198E+03   -0.41070E-01   -0.41739E-01 14180   0.161E+00    0.595E-01
RMM:   3    -0.651278915320E+03   -0.12171E-02   -0.28553E-02 13928   0.482E-01    0.541E-01
RMM:   4    -0.651277990362E+03    0.92496E-03   -0.57715E-03 13378   0.219E-01    0.290E-01
RMM:   5    -0.651277675671E+03    0.31469E-03   -0.18621E-03 13213   0.115E-01    0.165E-01
RMM:   6    -0.651277646324E+03    0.29348E-04   -0.10228E-03 12772   0.693E-02    0.157E-01
RMM:   7    -0.651277598317E+03    0.48007E-04   -0.55345E-04 11828   0.716E-02    0.143E-01
RMM:   8    -0.651277554499E+03    0.43819E-04   -0.53613E-04 12697   0.578E-02    0.151E-01
RMM:   9    -0.651277459625E+03    0.94874E-04   -0.19833E-04 11410   0.444E-02    0.506E-02
RMM:  10    -0.651277491444E+03   -0.31819E-04   -0.17718E-04 11183   0.274E-02    0.787E-02
RMM:  11    -0.651277462734E+03    0.28709E-04   -0.86843E-05 10611   0.233E-02    0.129E-02
RMM:  12    -0.651277463637E+03   -0.90276E-06   -0.41883E-05  8903   0.127E-02
  25 F= -.65127746E+03 E0= -.65120422E+03  d E =-.769069E-02
 trial-energy change:   -0.007691  1 .order   -0.007633   -0.009314   -0.005953
 step:   1.1782(harm=  1.3493)  dis= 0.01463  next Energy=  -651.281852 (dE=-0.121E-01)
 bond charge predicted
       N       E                     dE             d eps       ncg     rms          rms(c)
DAV:   1    -0.651200256807E+03    0.77206E-01   -0.34084E+00  9192   0.116E+01    0.479E-01
RMM:   2    -0.651283583281E+03   -0.83326E-01   -0.84421E-01 14176   0.230E+00    0.882E-01
RMM:   3    -0.651285445396E+03   -0.18621E-02   -0.57113E-02 13967   0.683E-01    0.749E-01
RMM:   4    -0.651283934640E+03    0.15108E-02   -0.11945E-02 13497   0.312E-01    0.445E-01
RMM:   5    -0.651283119242E+03    0.81540E-03   -0.37733E-03 13554   0.165E-01    0.230E-01
RMM:   6    -0.651283159026E+03   -0.39783E-04   -0.21153E-03 13170   0.973E-02    0.260E-01
RMM:   7    -0.651283026955E+03    0.13207E-03   -0.11245E-03 12197   0.101E-01    0.238E-01
RMM:   8    -0.651283189529E+03   -0.16257E-03   -0.11440E-03 12740   0.901E-02    0.315E-01
RMM:   9    -0.651282689202E+03    0.50033E-03   -0.55944E-04 11857   0.727E-02    0.563E-02
RMM:  10    -0.651282759157E+03   -0.69955E-04   -0.44302E-04 11594   0.402E-02    0.105E-01
RMM:  11    -0.651282708074E+03    0.51083E-04   -0.19761E-04 11254   0.325E-02    0.203E-02
RMM:  12    -0.651282711683E+03   -0.36097E-05   -0.10674E-04 10230   0.171E-02    0.189E-02
RMM:  13    -0.651282717501E+03   -0.58179E-05   -0.60140E-05  9651   0.171E-02
  26 F= -.65128272E+03 E0= -.65120979E+03  d E =-.129446E-01
 curvature:  -1.18 expect dE=-0.122E-01 dE for cont linesearch -0.233E-03
 ZBRENT: extrapolating
 opt :   1.3672  next Energy=  -651.282966 (dE=-0.132E-01)
 bond charge predicted
       N       E                     dE             d eps       ncg     rms          rms(c)
DAV:   1    -0.651276811520E+03    0.59002E-02   -0.25494E-01  9840   0.316E+00    0.130E-01
RMM:   2    -0.651283001792E+03   -0.61903E-02   -0.63239E-02 14169   0.628E-01    0.216E-01
RMM:   3    -0.651283249373E+03   -0.24758E-03   -0.43563E-03 13835   0.188E-01    0.228E-01
RMM:   4    -0.651283073613E+03    0.17576E-03   -0.92061E-04 12815   0.898E-02    0.111E-01
RMM:   5    -0.651283039620E+03    0.33993E-04   -0.33512E-04 11850   0.472E-02    0.705E-02
RMM:   6    -0.651283040749E+03   -0.11287E-05   -0.17334E-04 11417   0.313E-02    0.753E-02
RMM:   7    -0.651283030714E+03    0.10034E-04   -0.94307E-05 10880   0.308E-02    0.664E-02
RMM:   8    -0.651283036206E+03   -0.54918E-05   -0.93834E-05 10997   0.283E-02
  27 F= -.65128304E+03 E0= -.65121023E+03  d E =-.132633E-01
 curvature:  -1.26 expect dE=-0.193E-01 dE for cont linesearch -0.736E-06
 trial: gam= 0.84638 g(F)=  0.101E-01 g(S)=  0.525E-02 ort = 0.143E-03 (trialstep = 0.569E+00)
 search vector abs. value=  0.406E-01
 bond charge predicted
       N       E                     dE             d eps       ncg     rms          rms(c)
DAV:   1    -0.651230410429E+03    0.52620E-01   -0.27963E+00 11472   0.105E+01    0.916E-01
RMM:   2    -0.651400885605E+03   -0.17048E+00   -0.81161E-01 13584   0.230E+00    0.385E+00
RMM:   3    -0.651293785036E+03    0.10710E+00   -0.89866E-02 11799   0.111E+00    0.976E-01
RMM:   4    -0.651293896145E+03   -0.11111E-03   -0.27258E-02 13628   0.403E-01    0.937E-01
RMM:   5    -0.651290319299E+03    0.35768E-02   -0.68631E-03 13150   0.232E-01    0.487E-01
RMM:   6    -0.651289596709E+03    0.72259E-03   -0.30767E-03 12424   0.160E-01    0.379E-01
RMM:   7    -0.651288928695E+03    0.66801E-03   -0.19268E-03 13509   0.111E-01    0.234E-01
RMM:   8    -0.651289427931E+03   -0.49924E-03   -0.12924E-03 12315   0.118E-01    0.382E-01
RMM:   9    -0.651288592081E+03    0.83585E-03   -0.88713E-04 12579   0.916E-02    0.586E-02
RMM:  10    -0.651288649275E+03   -0.57194E-04   -0.46366E-04 12401   0.473E-02    0.106E-01
RMM:  11    -0.651288608593E+03    0.40681E-04   -0.19339E-04 11732   0.355E-02    0.362E-02
WARNING in EDDRMM: call to ZHEGV failed, returncode =   6  3     10
RMM:  12    -0.651288613486E+03   -0.48924E-05   -0.11788E-04 10432   0.190E-02    0.176E-02
WARNING in EDDRMM: call to ZHEGV failed, returncode =   6  3      7
RMM:  13    -0.651288625276E+03   -0.11790E-04   -0.57309E-05  9991   0.187E-02    0.320E-02
RMM:  14    -0.651288625053E+03    0.22288E-06   -0.38155E-05  8625   0.166E-02
  28 F= -.65128863E+03 E0= -.65121628E+03  d E =-.558885E-02
 trial-energy change:   -0.005589  1 .order   -0.005977   -0.008833   -0.003120
 step:   0.8801(harm=  0.8801)  dis= 0.01305  next Energy=  -651.289865 (dE=-0.683E-02)
 bond charge predicted
       N       E                     dE             d eps       ncg     rms          rms(c)
DAV:   1    -0.651272353897E+03    0.16271E-01   -0.83645E-01 11952   0.571E+00    0.502E-01
RMM:   2    -0.651323223395E+03   -0.50869E-01   -0.24086E-01 13565   0.125E+00    0.209E+00
RMM:   3    -0.651290948236E+03    0.32275E-01   -0.25771E-02 11745   0.587E-01    0.503E-01
RMM:   4    -0.651291103695E+03   -0.15546E-03   -0.79062E-03 13410   0.214E-01    0.512E-01
RMM:   5    -0.651290012324E+03    0.10914E-02   -0.19149E-03 12563   0.125E-01    0.262E-01
RMM:   6    -0.651289815254E+03    0.19707E-03   -0.91643E-04 11663   0.899E-02    0.207E-01
RMM:   7    -0.651289624958E+03    0.19030E-03   -0.59725E-04 13065   0.621E-02    0.128E-01
RMM:   8    -0.651289767425E+03   -0.14247E-03   -0.39373E-04 11552   0.666E-02    0.205E-01
RMM:   9    -0.651289530863E+03    0.23656E-03   -0.26843E-04 11981   0.502E-02    0.323E-02
WARNING in EDDRMM: call to ZHEGV failed, returncode =   6  3      5
RMM:  10    -0.651289551345E+03   -0.20482E-04   -0.14847E-04 11383   0.283E-02    0.601E-02
RMM:  11    -0.651289538409E+03    0.12935E-04   -0.63029E-05  9310   0.215E-02    0.193E-02
RMM:  12    -0.651289540493E+03   -0.20835E-05   -0.33779E-05  7593   0.150E-02
  29 F= -.65128954E+03 E0= -.65121746E+03  d E =-.650429E-02
 curvature:  -1.15 expect dE=-0.246E-01 dE for cont linesearch -0.726E-05
 trial: gam= 1.28711 g(F)=  0.722E-02 g(S)=  0.141E-01 ort = 0.506E-03 (trialstep = 0.285E+00)
 search vector abs. value=  0.899E-01
 bond charge predicted
       N       E                     dE             d eps       ncg     rms          rms(c)
DAV:   1    -0.651256031966E+03    0.33506E-01   -0.14922E+00  9096   0.765E+00    0.474E-01
RMM:   2    -0.651311517761E+03   -0.55486E-01   -0.42775E-01 14253   0.151E+00    0.156E+00
RMM:   3    -0.651296327882E+03    0.15190E-01   -0.30445E-02 12253   0.627E-01    0.585E-01
RMM:   4    -0.651297527572E+03   -0.11997E-02   -0.10328E-02 13318   0.259E-01    0.703E-01
RMM:   5    -0.651295066451E+03    0.24611E-02   -0.27084E-03 12576   0.163E-01    0.182E-01
RMM:   6    -0.651295165379E+03   -0.98927E-04   -0.15213E-03 12790   0.894E-02    0.251E-01
RMM:   7    -0.651294868192E+03    0.29719E-03   -0.73572E-04 12692   0.758E-02    0.118E-01
RMM:   8    -0.651294843455E+03    0.24737E-04   -0.67297E-04 13314   0.646E-02    0.138E-01
RMM:   9    -0.651294753222E+03    0.90233E-04   -0.25958E-04 11847   0.490E-02    0.533E-02
RMM:  10    -0.651294751375E+03    0.18464E-05   -0.17236E-04 11128   0.242E-02    0.302E-02
RMM:  11    -0.651294759206E+03   -0.78305E-05   -0.84469E-05 10320   0.232E-02
  30 F= -.65129476E+03 E0= -.65122288E+03  d E =-.521871E-02
 trial-energy change:   -0.005219  1 .order   -0.005117   -0.006271   -0.003964
 step:   0.6003(harm=  0.7750)  dis= 0.01404  next Energy=  -651.297086 (dE=-0.755E-02)
 bond charge predicted
       N       E                     dE             d eps       ncg     rms          rms(c)
DAV:   1    -0.651250439154E+03    0.44312E-01   -0.18225E+00  9096   0.844E+00    0.529E-01
RMM:   2    -0.651319435685E+03   -0.68997E-01   -0.52310E-01 14234   0.167E+00    0.177E+00
RMM:   3    -0.651299681257E+03    0.19754E-01   -0.38105E-02 12242   0.705E-01    0.642E-01
RMM:   4    -0.651301156876E+03   -0.14756E-02   -0.12912E-02 13396   0.291E-01    0.773E-01
RMM:   5    -0.651298220200E+03    0.29367E-02   -0.33858E-03 12722   0.179E-01    0.211E-01
WARNING in EDDRMM: call to ZHEGV failed, returncode =   8  4      5
RMM:   6    -0.651298326396E+03   -0.10620E-03   -0.18976E-03 12814   0.982E-02    0.276E-01
RMM:   7    -0.651297962937E+03    0.36346E-03   -0.93175E-04 12898   0.823E-02    0.127E-01
RMM:   8    -0.651297982841E+03   -0.19904E-04   -0.84321E-04 13335   0.734E-02    0.177E-01
RMM:   9    -0.651297827405E+03    0.15544E-03   -0.33651E-04 11944   0.553E-02    0.562E-02
RMM:  10    -0.651297844653E+03   -0.17247E-04   -0.23598E-04 11586   0.292E-02    0.639E-02
RMM:  11    -0.651297833801E+03    0.10852E-04   -0.11413E-04 10860   0.269E-02    0.297E-02
RMM:  12    -0.651297833417E+03    0.38424E-06   -0.68042E-05  9364   0.151E-02
  31 F= -.65129783E+03 E0= -.65122617E+03  d E =-.829292E-02
 curvature:  -1.38 expect dE=-0.104E-01 dE for cont linesearch -0.414E-03
 ZBRENT: increasing intervall
 opt :   1.2306  next Energy=  -651.295613 (dE=-0.607E-02)
 bond charge predicted
       N       E                     dE             d eps       ncg     rms          rms(c)
DAV:   1    -0.651099998534E+03    0.19784E+00   -0.72357E+00  9048   0.169E+01    0.106E+00
RMM:   2    -0.651375201264E+03   -0.27520E+00   -0.21315E+00 14254   0.338E+00    0.341E+00
RMM:   3    -0.651302479746E+03    0.72722E-01   -0.16066E-01 12269   0.137E+00    0.122E+00
RMM:   4    -0.651309517692E+03   -0.70379E-02   -0.50428E-02 13549   0.562E-01    0.158E+00
RMM:   5    -0.651297068253E+03    0.12449E-01   -0.12911E-02 12955   0.355E-01    0.404E-01
RMM:   6    -0.651297570418E+03   -0.50216E-03   -0.73842E-03 13653   0.188E-01    0.556E-01
RMM:   7    -0.651296134995E+03    0.14354E-02   -0.34782E-03 13411   0.164E-01    0.260E-01
RMM:   8    -0.651296005453E+03    0.12954E-03   -0.32327E-03 14021   0.132E-01    0.301E-01
RMM:   9    -0.651295572345E+03    0.43311E-03   -0.11603E-03 12335   0.967E-02    0.114E-01
RMM:  10    -0.651295565228E+03    0.71167E-05   -0.82417E-04 12361   0.504E-02    0.461E-02
RMM:  11    -0.651295611286E+03   -0.46057E-04   -0.36902E-04 11975   0.413E-02    0.851E-02
WARNING in EDDRMM: call to ZHEGV failed, returncode =   6  3      5
RMM:  12    -0.651295593682E+03    0.17604E-04   -0.26048E-04 11436   0.303E-02    0.252E-02
RMM:  13    -0.651295600368E+03   -0.66861E-05   -0.12833E-04 10723   0.207E-02    0.162E-02
RMM:  14    -0.651295609707E+03   -0.93386E-05   -0.71376E-05 10034   0.192E-02
  32 F= -.65129561E+03 E0= -.65122442E+03  d E =-.606921E-02
 curvature:   7.42 expect dE= 0.213E+00 dE for cont linesearch  0.133E-01
 ZBRENT: bracketing found
 ZBRENT: interpolating
 opt :   0.7833  next Energy=  -651.298308 (dE=-0.877E-02)
 bond charge predicted
       N       E                     dE             d eps       ncg     rms          rms(c)
DAV:   1    -0.651203164434E+03    0.92436E-01   -0.36667E+00  9096   0.120E+01    0.763E-01
RMM:   2    -0.651351476961E+03   -0.14831E+00   -0.10740E+00 14241   0.240E+00    0.279E+00
RMM:   3    -0.651303373169E+03    0.48104E-01   -0.78121E-02 12129   0.982E-01    0.102E+00
RMM:   4    -0.651304129404E+03   -0.75623E-03   -0.24978E-02 13395   0.405E-01    0.989E-01
RMM:   5    -0.651299149878E+03    0.49795E-02   -0.63019E-03 12924   0.241E-01    0.298E-01
RMM:   6    -0.651299308764E+03   -0.15889E-03   -0.35260E-03 13343   0.136E-01    0.378E-01
RMM:   7    -0.651298592508E+03    0.71626E-03   -0.16572E-03 13091   0.115E-01    0.179E-01
RMM:   8    -0.651298834536E+03   -0.24203E-03   -0.16523E-03 13358   0.106E-01    0.311E-01
RMM:   9    -0.651298302213E+03    0.53232E-03   -0.59237E-04 11698   0.803E-02    0.646E-02
RMM:  10    -0.651298350767E+03   -0.48554E-04   -0.47554E-04 12227   0.391E-02    0.843E-02
RMM:  11    -0.651298334338E+03    0.16430E-04   -0.17665E-04 11499   0.339E-02    0.416E-02
RMM:  12    -0.651298337587E+03   -0.32497E-05   -0.12793E-04 10479   0.187E-02    0.194E-02
RMM:  13    -0.651298348869E+03   -0.11282E-04   -0.65912E-05  9948   0.181E-02    0.360E-02
RMM:  14    -0.651298347557E+03    0.13116E-05   -0.48467E-05  8642   0.167E-02
  33 F= -.65129835E+03 E0= -.65122681E+03  d E =-.880706E-02
 curvature:  -0.27 expect dE=-0.266E-02 dE for cont linesearch -0.200E-06
 trial: gam= 0.41465 g(F)=  0.760E-02 g(S)=  0.242E-02 ort = 0.260E-03 (trialstep = 0.385E+00)
 search vector abs. value=  0.257E-01
 bond charge predicted
       N       E                     dE             d eps       ncg     rms          rms(c)
DAV:   1    -0.651281440268E+03    0.16909E-01   -0.77515E-01  9216   0.547E+00    0.296E-01
RMM:   2    -0.651306610409E+03   -0.25170E-01   -0.21574E-01 14230   0.106E+00    0.886E-01
RMM:   3    -0.651302327967E+03    0.42824E-02   -0.13503E-02 12710   0.394E-01    0.373E-01
RMM:   4    -0.651302939205E+03   -0.61124E-03   -0.44204E-03 13043   0.176E-01    0.474E-01
RMM:   5    -0.651301826772E+03    0.11124E-02   -0.11546E-03 11692   0.109E-01    0.136E-01
RMM:   6    -0.651301844827E+03   -0.18055E-04   -0.66767E-04 12093   0.588E-02    0.156E-01
RMM:   7    -0.651301718861E+03    0.12597E-03   -0.30665E-04 12180   0.471E-02    0.707E-02
RMM:   8    -0.651301720975E+03   -0.21143E-05   -0.28057E-04 12596   0.422E-02    0.106E-01
RMM:   9    -0.651301670197E+03    0.50778E-04   -0.10399E-04 10954   0.330E-02    0.390E-02
WARNING in EDDRMM: call to ZHEGV failed, returncode =   8  4      6
RMM:  10    -0.651301672883E+03   -0.26858E-05   -0.82793E-05  9909   0.192E-02
  34 F= -.65130167E+03 E0= -.65123038E+03  d E =-.332533E-02
 trial-energy change:   -0.003325  1 .order   -0.003301   -0.003898   -0.002705
 step:   1.2575(harm=  1.2575)  dis= 0.01701  next Energy=  -651.304716 (dE=-0.637E-02)
 bond charge predicted
       N       E                     dE             d eps       ncg     rms          rms(c)
DAV:   1    -0.651200504526E+03    0.10117E+00   -0.39877E+00  9168   0.124E+01    0.670E-01
RMM:   2    -0.651328570193E+03   -0.12807E+00   -0.11023E+00 14218   0.238E+00    0.198E+00
RMM:   3    -0.651307885058E+03    0.20685E-01   -0.74219E-02 12828   0.927E-01    0.821E-01
RMM:   4    -0.651311413060E+03   -0.35280E-02   -0.23838E-02 13525   0.401E-01    0.108E+00
RMM:   5    -0.651305728309E+03    0.56848E-02   -0.65374E-03 12744   0.248E-01    0.302E-01
RMM:   6    -0.651305865932E+03   -0.13762E-03   -0.36823E-03 13034   0.128E-01    0.353E-01
RMM:   7    -0.651305243449E+03    0.62248E-03   -0.16984E-03 13495   0.105E-01    0.160E-01
RMM:   8    -0.651305111155E+03    0.13229E-03   -0.14308E-03 13769   0.819E-02    0.165E-01
RMM:   9    -0.651305043146E+03    0.68009E-04   -0.52202E-04 12147   0.643E-02    0.110E-01
RMM:  10    -0.651305007026E+03    0.36120E-04   -0.35390E-04 12061   0.370E-02    0.370E-02
RMM:  11    -0.651305032804E+03   -0.25778E-04   -0.20716E-04 11462   0.304E-02    0.695E-02
RMM:  12    -0.651305015895E+03    0.16909E-04   -0.11177E-04 10488   0.219E-02    0.154E-02
WARNING in EDDRMM: call to ZHEGV failed, returncode =   8  4      6
RMM:  13    -0.651305019537E+03   -0.36415E-05   -0.67155E-05  9519   0.178E-02
  35 F= -.65130502E+03 E0= -.65123432E+03  d E =-.667198E-02
 curvature:  -1.60 expect dE=-0.151E-01 dE for cont linesearch -0.127E-04
 trial: gam= 0.87005 g(F)=  0.376E-02 g(S)=  0.569E-02 ort = 0.452E-03 (trialstep = 0.484E+00)
 search vector abs. value=  0.297E-01
 bond charge predicted
       N       E                     dE             d eps       ncg     rms          rms(c)
DAV:   1    -0.651281421864E+03    0.23594E-01   -0.15126E+00 12360   0.748E+00    0.781E-01
RMM:   2    -0.651389813543E+03   -0.10839E+00   -0.42327E-01 12741   0.176E+00    0.325E+00
RMM:   3    -0.651310842000E+03    0.78972E-01   -0.57546E-02 11562   0.892E-01    0.671E-01
RMM:   4    -0.651311538849E+03   -0.69685E-03   -0.17494E-02 13651   0.313E-01    0.736E-01
RMM:   5    -0.651309182239E+03    0.23566E-02   -0.39284E-03 12310   0.185E-01    0.390E-01
RMM:   6    -0.651308813865E+03    0.36837E-03   -0.18938E-03 11705   0.137E-01    0.332E-01
RMM:   7    -0.651308275442E+03    0.53842E-03   -0.13576E-03 13206   0.930E-02    0.169E-01
RMM:   8    -0.651308658127E+03   -0.38269E-03   -0.77012E-04 11447   0.933E-02    0.316E-01
RMM:   9    -0.651308115250E+03    0.54288E-03   -0.45317E-04 11686   0.680E-02    0.455E-02
RMM:  10    -0.651308145280E+03   -0.30031E-04   -0.25758E-04 11730   0.335E-02    0.771E-02
RMM:  11    -0.651308124820E+03    0.20460E-04   -0.91104E-05  9555   0.254E-02    0.308E-02
WARNING in EDDRMM: call to ZHEGV failed, returncode =   8  4     10
RMM:  12    -0.651308127825E+03   -0.30047E-05   -0.65185E-05  8684   0.167E-02
  36 F= -.65130813E+03 E0= -.65123799E+03  d E =-.310829E-02
 trial-energy change:   -0.003108  1 .order   -0.003171   -0.004767   -0.001576
 step:   0.7799(harm=  0.7233)  dis= 0.01202  next Energy=  -651.308595 (dE=-0.358E-02)
 bond charge predicted
       N       E                     dE             d eps       ncg     rms          rms(c)
DAV:   1    -0.651298385860E+03    0.97390E-02   -0.56488E-01 12432   0.459E+00    0.480E-01
RMM:   2    -0.651339641769E+03   -0.41256E-01   -0.15799E-01 12739   0.107E+00    0.201E+00
RMM:   3    -0.651309369147E+03    0.30273E-01   -0.21415E-02 11431   0.550E-01    0.401E-01
RMM:   4    -0.651309615452E+03   -0.24631E-03   -0.66342E-03 13222   0.194E-01    0.440E-01
RMM:   5    -0.651308770249E+03    0.84520E-03   -0.14200E-03 11905   0.114E-01    0.237E-01
RMM:   6    -0.651308631483E+03    0.13877E-03   -0.68634E-04 11039   0.833E-02    0.198E-01
RMM:   7    -0.651308448616E+03    0.18287E-03   -0.51246E-04 12665   0.578E-02    0.103E-01
RMM:   8    -0.651308585041E+03   -0.13643E-03   -0.29013E-04 10629   0.587E-02    0.188E-01
RMM:   9    -0.651308394488E+03    0.19055E-03   -0.17297E-04 10751   0.418E-02    0.290E-02
RMM:  10    -0.651308410471E+03   -0.15983E-04   -0.10390E-04 10201   0.221E-02    0.531E-02
RMM:  11    -0.651308400340E+03    0.10131E-04   -0.38285E-05  6883   0.192E-02    0.184E-02
RMM:  12    -0.651308402808E+03   -0.24679E-05   -0.26741E-05  6538   0.154E-02
  37 F= -.65130840E+03 E0= -.65123861E+03  d E =-.338327E-02
 curvature:  -1.03 expect dE=-0.887E-02 dE for cont linesearch -0.382E-04
 trial: gam= 1.08017 g(F)=  0.374E-02 g(S)=  0.487E-02 ort =-0.105E-02 (trialstep = 0.394E+00)
 search vector abs. value=  0.410E-01
 bond charge predicted
       N       E                     dE             d eps       ncg     rms          rms(c)
DAV:   1    -0.651277673917E+03    0.30726E-01   -0.13912E+00  9696   0.705E+00    0.279E-01
RMM:   2    -0.651310814072E+03   -0.33140E-01   -0.33434E-01 14059   0.133E+00    0.499E-01
RMM:   3    -0.651311913438E+03   -0.10994E-02   -0.21526E-02 13783   0.420E-01    0.489E-01
RMM:   4    -0.651311302928E+03    0.61051E-03   -0.48633E-03 13236   0.189E-01    0.278E-01
RMM:   5    -0.651311043626E+03    0.25930E-03   -0.13946E-03 12658   0.966E-02    0.152E-01
RMM:   6    -0.651310967296E+03    0.76330E-04   -0.63670E-04 11957   0.522E-02    0.109E-01
RMM:   7    -0.651310973784E+03   -0.64872E-05   -0.31740E-04 11591   0.497E-02    0.122E-01
RMM:   8    -0.651310955615E+03    0.18168E-04   -0.33661E-04 11962   0.490E-02    0.135E-01
RMM:   9    -0.651310863617E+03    0.91998E-04   -0.14839E-04 10872   0.386E-02    0.408E-02
RMM:  10    -0.651310874910E+03   -0.11293E-04   -0.11568E-04 10626   0.230E-02    0.472E-02
RMM:  11    -0.651310867217E+03    0.76935E-05   -0.51179E-05  8827   0.203E-02
  38 F= -.65131087E+03 E0= -.65124142E+03  d E =-.246441E-02
 trial-energy change:   -0.002464  1 .order   -0.002443   -0.002942   -0.001945
 step:   1.1607(harm=  1.1607)  dis= 0.02368  next Energy=  -651.312741 (dE=-0.434E-02)
 bond charge predicted
       N       E                     dE             d eps       ncg     rms          rms(c)
DAV:   1    -0.651185389592E+03    0.12549E+00   -0.52821E+00  9456   0.138E+01    0.543E-01
RMM:   2    -0.651310664196E+03   -0.12527E+00   -0.12773E+00 14085   0.261E+00    0.855E-01
RMM:   3    -0.651317463776E+03   -0.67996E-02   -0.84590E-02 13894   0.806E-01    0.105E+00
RMM:   4    -0.651314201022E+03    0.32628E-02   -0.18455E-02 13284   0.377E-01    0.534E-01
RMM:   5    -0.651313345715E+03    0.85531E-03   -0.60262E-03 13653   0.184E-01    0.295E-01
RMM:   6    -0.651312991709E+03    0.35401E-03   -0.23304E-03 12927   0.959E-02    0.190E-01
RMM:   7    -0.651313110176E+03   -0.11847E-03   -0.12298E-03 12317   0.970E-02    0.253E-01
RMM:   8    -0.651312829328E+03    0.28085E-03   -0.12470E-03 13065   0.914E-02    0.200E-01
RMM:   9    -0.651312673273E+03    0.15605E-03   -0.54889E-04 11749   0.654E-02    0.102E-01
RMM:  10    -0.651312683563E+03   -0.10290E-04   -0.37460E-04 11773   0.422E-02    0.890E-02
RMM:  11    -0.651312660042E+03    0.23521E-04   -0.19046E-04 11146   0.327E-02    0.469E-02
WARNING in EDDRMM: call to ZHEGV failed, returncode =   6  3     11
RMM:  12    -0.651312650250E+03    0.97923E-05   -0.12890E-04 10526   0.195E-02    0.110E-02
RMM:  13    -0.651312652595E+03   -0.23451E-05   -0.55473E-05  9378   0.155E-02
  39 F= -.65131265E+03 E0= -.65124390E+03  d E =-.424979E-02
 curvature:  -3.18 expect dE=-0.273E-01 dE for cont linesearch -0.217E-04
 trial: gam= 0.50849 g(F)=  0.476E-02 g(S)=  0.384E-02 ort =-0.529E-03 (trialstep = 0.547E+00)
 search vector abs. value=  0.187E-01
 bond charge predicted
       N       E                     dE             d eps       ncg     rms          rms(c)
DAV:   1    -0.651303561119E+03    0.90891E-02   -0.11331E+00 12984   0.609E+00    0.899E-01
RMM:   2    -0.651422165343E+03   -0.11860E+00   -0.30575E-01 12203   0.172E+00    0.369E+00
RMM:   3    -0.651318737242E+03    0.10343E+00   -0.62823E-02 11525   0.979E-01    0.712E-01
RMM:   4    -0.651319520559E+03   -0.78332E-03   -0.17095E-02 13680   0.333E-01    0.842E-01
RMM:   5    -0.651316326267E+03    0.31943E-02   -0.45803E-03 12678   0.206E-01    0.372E-01
RMM:   6    -0.651316184912E+03    0.14136E-03   -0.24294E-03 12361   0.151E-01    0.389E-01
RMM:   7    -0.651315279141E+03    0.90577E-03   -0.13689E-03 12910   0.108E-01    0.120E-01
RMM:   8    -0.651315760035E+03   -0.48089E-03   -0.95807E-04 12902   0.880E-02    0.331E-01
RMM:   9    -0.651315184189E+03    0.57585E-03   -0.40659E-04 11318   0.689E-02    0.407E-02
RMM:  10    -0.651315197843E+03   -0.13655E-04   -0.27117E-04 11882   0.301E-02    0.468E-02
RMM:  11    -0.651315199478E+03   -0.16351E-05   -0.87456E-05 10855   0.282E-02
  40 F= -.65131520E+03 E0= -.65124648E+03  d E =-.254688E-02
 trial-energy change:   -0.002547  1 .order   -0.002510   -0.004554   -0.000467
 step:   0.6095(harm=  0.6095)  dis= 0.00792  next Energy=  -651.315189 (dE=-0.254E-02)
 bond charge predicted
       N       E                     dE             d eps       ncg     rms          rms(c)
DAV:   1    -0.651315068706E+03    0.12914E-03   -0.14884E-02 13416   0.701E-01    0.107E-01
RMM:   2    -0.651316798813E+03   -0.17301E-02   -0.41822E-03 12103   0.203E-01    0.451E-01
RMM:   3    -0.651315271020E+03    0.15278E-02   -0.89947E-04 10235   0.119E-01    0.854E-02
RMM:   4    -0.651315269908E+03    0.11117E-05   -0.24428E-04 10886   0.464E-02    0.862E-02
RMM:   5    -0.651315238783E+03    0.31125E-04   -0.69044E-05  9136   0.255E-02    0.453E-02
RMM:   6    -0.651315234864E+03    0.39185E-05   -0.33156E-05  6400   0.218E-02
  41 F= -.65131523E+03 E0= -.65124652E+03  d E =-.258227E-02
 curvature:  -0.68 expect dE=-0.316E-02 dE for cont linesearch -0.316E-05
 trial: gam= 0.46714 g(F)=  0.240E-02 g(S)=  0.223E-02 ort = 0.294E-03 (trialstep = 0.559E+00)
 search vector abs. value=  0.898E-02
 bond charge predicted
       N       E                     dE             d eps       ncg     rms          rms(c)
DAV:   1    -0.651308143748E+03    0.70950E-02   -0.53117E-01 10512   0.401E+00    0.344E-01
RMM:   2    -0.651330691551E+03   -0.22548E-01   -0.12079E-01 14228   0.921E-01    0.132E+00
RMM:   3    -0.651317807874E+03    0.12884E-01   -0.12828E-02 12060   0.432E-01    0.289E-01
RMM:   4    -0.651318165149E+03   -0.35727E-03   -0.46038E-03 13497   0.170E-01    0.370E-01
RMM:   5    -0.651317462324E+03    0.70282E-03   -0.11549E-03 12275   0.109E-01    0.144E-01
RMM:   6    -0.651317504333E+03   -0.42010E-04   -0.67900E-04 12574   0.680E-02    0.195E-01
RMM:   7    -0.651317313004E+03    0.19133E-03   -0.35068E-04 12174   0.582E-02    0.779E-02
RMM:   8    -0.651317464191E+03   -0.15119E-03   -0.32584E-04 12255   0.510E-02    0.188E-01
RMM:   9    -0.651317285861E+03    0.17833E-03   -0.15594E-04 11326   0.420E-02    0.297E-02
RMM:  10    -0.651317301098E+03   -0.15237E-04   -0.13723E-04 10476   0.216E-02    0.487E-02
RMM:  11    -0.651317293011E+03    0.80873E-05   -0.53925E-05  9128   0.223E-02
  42 F= -.65131729E+03 E0= -.65124878E+03  d E =-.205815E-02
 trial-energy change:   -0.002058  1 .order   -0.001993   -0.002668   -0.001318
 step:   0.9285(harm=  1.1058)  dis= 0.00765  next Energy=  -651.317746 (dE=-0.251E-02)
 bond charge predicted
       N       E                     dE             d eps       ncg     rms          rms(c)
DAV:   1    -0.651313881558E+03    0.34195E-02   -0.23107E-01 10848   0.262E+00    0.232E-01
RMM:   2    -0.651324040251E+03   -0.10159E-01   -0.52774E-02 14208   0.604E-01    0.895E-01
RMM:   3    -0.651318060321E+03    0.59799E-02   -0.57353E-03 11940   0.291E-01    0.188E-01
RMM:   4    -0.651318240708E+03   -0.18039E-03   -0.20793E-03 13216   0.115E-01    0.248E-01
RMM:   5    -0.651317933730E+03    0.30698E-03   -0.52053E-04 11906   0.733E-02    0.996E-02
RMM:   6    -0.651317956146E+03   -0.22416E-04   -0.31524E-04 11977   0.471E-02    0.130E-01
RMM:   7    -0.651317873358E+03    0.82789E-04   -0.16858E-04 11804   0.386E-02    0.507E-02
RMM:   8    -0.651317937787E+03   -0.64429E-04   -0.14927E-04 11628   0.349E-02    0.120E-01
RMM:   9    -0.651317864989E+03    0.72798E-04   -0.73185E-05 10147   0.281E-02    0.189E-02
RMM:  10    -0.651317872963E+03   -0.79738E-05   -0.66757E-05  8893   0.169E-02
  43 F= -.65131787E+03 E0= -.65124949E+03  d E =-.263810E-02
 curvature:  -0.93 expect dE=-0.223E-02 dE for cont linesearch -0.480E-04
 ZBRENT: extrapolating
 opt :   1.0783  next Energy=  -651.317924 (dE=-0.269E-02)
 bond charge predicted
       N       E                     dE             d eps       ncg     rms          rms(c)
DAV:   1    -0.651317211702E+03    0.65329E-03   -0.37739E-02 10584   0.106E+00    0.939E-02
RMM:   2    -0.651318930494E+03   -0.17188E-02   -0.90412E-03 14261   0.246E-01    0.365E-01
RMM:   3    -0.651317943796E+03    0.98670E-03   -0.94543E-04 11442   0.118E-01    0.822E-02
RMM:   4    -0.651317971408E+03   -0.27612E-04   -0.36204E-04 12135   0.521E-02    0.101E-01
RMM:   5    -0.651317921347E+03    0.50061E-04   -0.93502E-05 10620   0.323E-02    0.397E-02
RMM:   6    -0.651317928346E+03   -0.69995E-05   -0.59134E-05  9130   0.223E-02
  44 F= -.65131793E+03 E0= -.65124960E+03  d E =-.269348E-02
 curvature:  -0.99 expect dE=-0.291E-02 dE for cont linesearch -0.137E-06
 trial: gam= 0.69008 g(F)=  0.222E-02 g(S)=  0.733E-03 ort = 0.353E-04 (trialstep = 0.663E+00)
 search vector abs. value=  0.727E-02
 bond charge predicted
       N       E                     dE             d eps       ncg     rms          rms(c)
DAV:   1    -0.651306411594E+03    0.11510E-01   -0.61944E-01  9168   0.436E+00    0.201E-01
RMM:   2    -0.651320488580E+03   -0.14077E-01   -0.13628E-01 14288   0.899E-01    0.425E-01
[...]
RMM:   5    -0.651352973368E+03    0.51057E-03   -0.11088E-03 11885   0.105E-01    0.812E-02
RMM:   6    -0.651352962114E+03    0.11254E-04   -0.42247E-04 12632   0.438E-02    0.924E-02
RMM:   7    -0.651352953422E+03    0.86922E-05   -0.15797E-04 11320   0.423E-02    0.835E-02
RMM:   8    -0.651352949529E+03    0.38927E-05   -0.15373E-04 11653   0.334E-02    0.858E-02
RMM:   9    -0.651352919020E+03    0.30509E-04   -0.61579E-05  9118   0.265E-02    0.336E-02
WARNING in EDDRMM: call to ZHEGV failed, returncode =   6  3      7
RMM:  10    -0.651352918227E+03    0.79343E-06   -0.50060E-05  8221   0.172E-02
  75 F= -.65135292E+03 E0= -.65128551E+03  d E =-.976790E-03
 trial-energy change:   -0.000977  1 .order   -0.000997   -0.001481   -0.000514
 step:   1.1799(harm=  1.1799)  dis= 0.00348  next Energy=  -651.353075 (dE=-0.113E-02)
 bond charge predicted
       N       E                     dE             d eps       ncg     rms          rms(c)
DAV:   1    -0.651350791859E+03    0.21272E-02   -0.13458E-01  9960   0.198E+00    0.145E-01
RMM:   2    -0.651354894820E+03   -0.41030E-02   -0.25116E-02 14034   0.431E-01    0.527E-01
RMM:   3    -0.651353090754E+03    0.18041E-02   -0.37827E-03 11309   0.272E-01    0.132E-01
RMM:   4    -0.651353246863E+03   -0.15611E-03   -0.11046E-03 12416   0.105E-01    0.180E-01
RMM:   5    -0.651353094660E+03    0.15220E-03   -0.37621E-04 11526   0.602E-02    0.507E-02
RMM:   6    -0.651353109248E+03   -0.14588E-04   -0.15240E-04 11290   0.296E-02    0.750E-02
RMM:   7    -0.651353085167E+03    0.24081E-04   -0.64493E-05  9290   0.253E-02    0.324E-02
RMM:   8    -0.651353102421E+03   -0.17253E-04   -0.54058E-05  7934   0.238E-02    0.644E-02
RMM:   9    -0.651353081736E+03    0.20684E-04   -0.28314E-05  6085   0.225E-02    0.134E-02
RMM:  10    -0.651353085915E+03   -0.41786E-05   -0.24576E-05  6157   0.151E-02
  76 F= -.65135309E+03 E0= -.65128571E+03  d E =-.114448E-02
 curvature:  -1.45 expect dE=-0.218E-02 dE for cont linesearch -0.141E-05
 trial: gam= 0.75493 g(F)=  0.751E-03 g(S)=  0.757E-03 ort = 0.677E-04 (trialstep = 0.852E+00)
 search vector abs. value=  0.430E-02
 bond charge predicted
       N       E                     dE             d eps       ncg     rms          rms(c)
DAV:   1    -0.651346082038E+03    0.69997E-02   -0.56707E-01 11400   0.420E+00    0.450E-01
RMM:   2    -0.651379872239E+03   -0.33790E-01   -0.12448E-01 13155   0.102E+00    0.182E+00
RMM:   3    -0.651354615665E+03    0.25257E-01   -0.19324E-02 11261   0.555E-01    0.350E-01
RMM:   4    -0.651354946949E+03   -0.33128E-03   -0.60835E-03 13336   0.204E-01    0.413E-01
RMM:   5    -0.651353993831E+03    0.95312E-03   -0.13535E-03 12116   0.119E-01    0.148E-01
RMM:   6    -0.651354086612E+03   -0.92781E-04   -0.75748E-04 12465   0.751E-02    0.223E-01
RMM:   7    -0.651353818423E+03    0.26819E-03   -0.37140E-04 11824   0.622E-02    0.709E-02
RMM:   8    -0.651353926959E+03   -0.10854E-03   -0.33535E-04 12144   0.473E-02    0.166E-01
RMM:   9    -0.651353786809E+03    0.14015E-03   -0.11879E-04 10023   0.385E-02    0.312E-02
RMM:  10    -0.651353795997E+03   -0.91887E-05   -0.90700E-05  9518   0.201E-02
  77 F= -.65135380E+03 E0= -.65128636E+03  d E =-.710083E-03
 trial-energy change:   -0.000710  1 .order   -0.000675   -0.001328   -0.000022
 step:   0.8665(harm=  0.8665)  dis= 0.00218  next Energy=  -651.353761 (dE=-0.675E-03)
 bond charge predicted
       N       E                     dE             d eps       ncg     rms          rms(c)
DAV:   1    -0.651353788681E+03   -0.18729E-05   -0.26728E-04 14016   0.877E-02    0.206E-02
RMM:   2    -0.651353874400E+03   -0.85718E-04   -0.86695E-05  7157   0.310E-02    0.120E-01
RMM:   3    -0.651353791151E+03    0.83249E-04   -0.31861E-05  5954   0.284E-02    0.224E-02
RMM:   4    -0.651353788564E+03    0.25862E-05   -0.67566E-06  5096   0.109E-02
  78 F= -.65135379E+03 E0= -.65128635E+03  d E =-.702650E-03
 curvature:  -1.20 expect dE=-0.100E-02 dE for cont linesearch -0.196E-05
 trial: gam= 0.49310 g(F)=  0.526E-03 g(S)=  0.312E-03 ort = 0.840E-04 (trialstep = 0.855E+00)
 search vector abs. value=  0.197E-02
 bond charge predicted
       N       E                     dE             d eps       ncg     rms          rms(c)
DAV:   1    -0.651349859080E+03    0.39321E-02   -0.25277E-01  9480   0.274E+00    0.183E-01
RMM:   2    -0.651356912057E+03   -0.70530E-02   -0.52491E-02 14246   0.593E-01    0.579E-01
RMM:   3    -0.651354465926E+03    0.24461E-02   -0.42696E-03 12039   0.247E-01    0.161E-01
RMM:   4    -0.651354732139E+03   -0.26621E-03   -0.15518E-03 12962   0.100E-01    0.262E-01
RMM:   5    -0.651354385693E+03    0.34645E-03   -0.41180E-04 11415   0.662E-02    0.754E-02
RMM:   6    -0.651354408136E+03   -0.22443E-04   -0.24408E-04 11870   0.390E-02    0.108E-01
RMM:   7    -0.651354353707E+03    0.54429E-04   -0.11611E-04 10972   0.351E-02    0.446E-02
RMM:   8    -0.651354362418E+03   -0.87119E-05   -0.10701E-04 11290   0.269E-02    0.640E-02
RMM:   9    -0.651354343341E+03    0.19077E-04   -0.38533E-05  7223   0.221E-02    0.180E-02
RMM:  10    -0.651354345365E+03   -0.20237E-05   -0.29209E-05  6849   0.181E-02
  79 F= -.65135435E+03 E0= -.65128692E+03  d E =-.556801E-03
 trial-energy change:   -0.000557  1 .order   -0.000521   -0.000752   -0.000291
 step:   1.3945(harm=  1.3945)  dis= 0.00248  next Energy=  -651.354402 (dE=-0.613E-03)
 bond charge predicted
       N       E                     dE             d eps       ncg     rms          rms(c)
DAV:   1    -0.651352637961E+03    0.17054E-02   -0.10052E-01  9240   0.173E+00    0.117E-01
RMM:   2    -0.651355505666E+03   -0.28677E-02   -0.20980E-02 14227   0.374E-01    0.374E-01
RMM:   3    -0.651354472183E+03    0.10335E-02   -0.17774E-03 11868   0.159E-01    0.997E-02
RMM:   4    -0.651354578403E+03   -0.10622E-03   -0.65438E-04 12480   0.654E-02    0.159E-01
RMM:   5    -0.651354450615E+03    0.12779E-03   -0.17609E-04 11061   0.432E-02    0.476E-02
RMM:   6    -0.651354463702E+03   -0.13087E-04   -0.10941E-04 10969   0.260E-02    0.714E-02
RMM:   7    -0.651354441214E+03    0.22488E-04   -0.51362E-05  9007   0.239E-02    0.282E-02
RMM:   8    -0.651354445208E+03   -0.39943E-05   -0.43613E-05  8408   0.195E-02
  80 F= -.65135445E+03 E0= -.65128705E+03  d E =-.656644E-03
 curvature:  -1.56 expect dE=-0.848E-03 dE for cont linesearch -0.312E-06
 trial: gam= 0.76658 g(F)=  0.348E-03 g(S)=  0.195E-03 ort =-0.198E-04 (trialstep = 0.963E+00)
 search vector abs. value=  0.167E-02
 bond charge predicted
       N       E                     dE             d eps       ncg     rms          rms(c)
DAV:   1    -0.651348915767E+03    0.55254E-02   -0.28714E-01  9192   0.307E+00    0.160E-01
RMM:   2    -0.651356199707E+03   -0.72839E-02   -0.62799E-02 14266   0.620E-01    0.448E-01
RMM:   3    -0.651354905404E+03    0.12943E-02   -0.42768E-03 12523   0.241E-01    0.169E-01
RMM:   4    -0.651355053143E+03   -0.14774E-03   -0.14030E-03 12885   0.104E-01    0.208E-01
RMM:   5    -0.651354812936E+03    0.24021E-03   -0.36398E-04 11227   0.641E-02    0.553E-02
WARNING in EDDRMM: call to ZHEGV failed, returncode =   6  3      6
RMM:   6    -0.651354820421E+03   -0.74845E-05   -0.21099E-04 11725   0.313E-02    0.764E-02
RMM:   7    -0.651354807242E+03    0.13179E-04   -0.87291E-05 10769   0.316E-02    0.588E-02
RMM:   8    -0.651354805069E+03    0.21725E-05   -0.95726E-05 10890   0.258E-02
  81 F= -.65135481E+03 E0= -.65128731E+03  d E =-.359861E-03
 trial-energy change:   -0.000360  1 .order   -0.000323   -0.000509   -0.000137
 step:   1.3185(harm=  1.3185)  dis= 0.00252  next Energy=  -651.354794 (dE=-0.348E-03)
 bond charge predicted
       N       E                     dE             d eps       ncg     rms          rms(c)
DAV:   1    -0.651354026130E+03    0.78111E-03   -0.39182E-02  9576   0.114E+00    0.619E-02
RMM:   2    -0.651355140907E+03   -0.11148E-02   -0.86144E-03 14103   0.232E-01    0.224E-01
RMM:   3    -0.651354841758E+03    0.29915E-03   -0.61939E-04 12047   0.904E-02    0.777E-02
RMM:   4    -0.651354857250E+03   -0.15492E-04   -0.23095E-04 11807   0.445E-02    0.823E-02
RMM:   5    -0.651354825613E+03    0.31637E-04   -0.66957E-05  8930   0.268E-02    0.315E-02
RMM:   6    -0.651354824225E+03    0.13878E-05   -0.39397E-05  7408   0.197E-02
  82 F= -.65135482E+03 E0= -.65128733E+03  d E =-.379017E-03
 curvature:  -2.08 expect dE=-0.614E-03 dE for cont linesearch -0.155E-05
 trial: gam= 0.42322 g(F)=  0.196E-03 g(S)=  0.992E-04 ort =-0.352E-04 (trialstep = 0.103E+01)
 search vector abs. value=  0.564E-03
 bond charge predicted
       N       E                     dE             d eps       ncg     rms          rms(c)
DAV:   1    -0.651353710727E+03    0.11149E-02   -0.10474E-01 11064   0.180E+00    0.227E-01
RMM:   2    -0.651361901256E+03   -0.81905E-02   -0.25176E-02 13098   0.493E-01    0.940E-01
RMM:   3    -0.651355154045E+03    0.67472E-02   -0.43061E-03 11432   0.258E-01    0.164E-01
RMM:   4    -0.651355186518E+03   -0.32473E-04   -0.12681E-03 12737   0.916E-02    0.189E-01
RMM:   5    -0.651354988737E+03    0.19778E-03   -0.31414E-04 11143   0.566E-02    0.831E-02
RMM:   6    -0.651355013952E+03   -0.25215E-04   -0.19261E-04 11230   0.433E-02    0.119E-01
RMM:   7    -0.651354938745E+03    0.75206E-04   -0.11319E-04 10791   0.349E-02    0.323E-02
RMM:   8    -0.651354949392E+03   -0.10646E-04   -0.80075E-05 10394   0.226E-02    0.517E-02
RMM:   9    -0.651354938650E+03    0.10741E-04   -0.26975E-05  6436   0.197E-02    0.220E-02
RMM:  10    -0.651354938981E+03   -0.33075E-06   -0.19424E-05  6196   0.166E-02
  83 F= -.65135494E+03 E0= -.65128747E+03  d E =-.114756E-03
 trial-energy change:   -0.000115  1 .order   -0.000115   -0.000290    0.000060
 step:   0.8571(harm=  0.8571)  dis= 0.00095  next Energy=  -651.354944 (dE=-0.120E-03)
 bond charge predicted
       N       E                     dE             d eps       ncg     rms          rms(c)
DAV:   1    -0.651354916207E+03    0.22444E-04   -0.31171E-03 11520   0.310E-01    0.425E-02
RMM:   2    -0.651355209458E+03   -0.29325E-03   -0.77689E-04 11751   0.891E-02    0.189E-01
RMM:   3    -0.651354955711E+03    0.25375E-03   -0.13932E-04  7705   0.508E-02    0.354E-02
RMM:   4    -0.651354953335E+03    0.23755E-05   -0.30516E-05  6046   0.219E-02
  84 F= -.65135495E+03 E0= -.65128748E+03  d E =-.129110E-03
 curvature:  -0.86 expect dE=-0.706E-03 dE for cont linesearch -0.230E-05
 trial: gam= 3.13888 g(F)=  0.190E-03 g(S)=  0.629E-03 ort =-0.388E-04 (trialstep = 0.919E-01)
 search vector abs. value=  0.613E-02
 bond charge predicted
       N       E                     dE             d eps       ncg     rms          rms(c)
DAV:   1    -0.651354797011E+03    0.15870E-03   -0.90706E-03  9312   0.561E-01    0.339E-02
RMM:   2    -0.651355173798E+03   -0.37679E-03   -0.21032E-03 13671   0.117E-01    0.187E-01
RMM:   3    -0.651354985622E+03    0.18818E-03   -0.17322E-04  8463   0.552E-02    0.280E-02
RMM:   4    -0.651354994365E+03   -0.87426E-05   -0.53589E-05  7228   0.252E-02
  85 F= -.65135499E+03 E0= -.65128752E+03  d E =-.410298E-04
 trial-energy change:   -0.000041  1 .order   -0.000035   -0.000064   -0.000006
 step:   0.1010(harm=  0.1010)  dis= 0.00036  next Energy=  -651.354989 (dE=-0.352E-04)
 bond charge predicted
       N       E                     dE             d eps       ncg     rms          rms(c)
DAV:   1    -0.651354986545E+03   -0.92272E-06   -0.16149E-04 13392   0.760E-02    0.118E-02
RMM:   2    -0.651355007439E+03   -0.20894E-04   -0.31125E-05  5985   0.207E-02    0.635E-02
RMM:   3    -0.651354988010E+03    0.19429E-04   -0.14435E-05  5468   0.232E-02    0.148E-02
RMM:   4    -0.651354987050E+03    0.95961E-06   -0.38520E-06  4642   0.738E-03
  86 F= -.65135499E+03 E0= -.65128751E+03  d E =-.337152E-04
 curvature:  -0.44 expect dE=-0.115E-03 dE for cont linesearch -0.505E-05
 ZBRENT: increasing intervall
 opt :   0.1194  next Energy=  -651.354996 (dE=-0.422E-04)
 bond charge predicted
       N       E                     dE             d eps       ncg     rms          rms(c)
DAV:   1    -0.651354984990E+03    0.30201E-05   -0.37476E-04 11424   0.113E-01    0.877E-03
RMM:   2    -0.651355007890E+03   -0.22900E-04   -0.83150E-05  7545   0.250E-02    0.529E-02
RMM:   3    -0.651354991683E+03    0.16208E-04   -0.11923E-05  4883   0.205E-02    0.634E-03
RMM:   4    -0.651354992226E+03   -0.54321E-06   -0.46974E-06  4506   0.789E-03
  87 F= -.65135499E+03 E0= -.65128751E+03  d E =-.388906E-04
 curvature:  -0.75 expect dE=-0.169E-03 dE for cont linesearch -0.249E-05
 ZBRENT: increasing intervall
 opt :   0.1560  next Energy=  -651.354993 (dE=-0.397E-04)
 bond charge predicted
       N       E                     dE             d eps       ncg     rms          rms(c)
DAV:   1    -0.651354968781E+03    0.22901E-04   -0.14885E-03  9696   0.223E-01    0.970E-03
RMM:   2    -0.651355004389E+03   -0.35607E-04   -0.33316E-04 11812   0.463E-02    0.271E-02
RMM:   3    -0.651355000996E+03    0.33923E-05   -0.18623E-05  5600   0.212E-02
  88 F= -.65135500E+03 E0= -.65128751E+03  d E =-.476611E-04
 curvature:  -0.24 expect dE=-0.552E-04 dE for cont linesearch -0.232E-06
 ZBRENT: bracketing found
 ZBRENT: interpolating
 opt :   0.1432  next Energy=  -651.355001 (dE=-0.482E-04)
 bond charge predicted
       N       E                     dE             d eps       ncg     rms          rms(c)
DAV:   1    -0.651354997028E+03    0.73601E-05   -0.18449E-04 12600   0.834E-02    0.115E-02
RMM:   2    -0.651355034443E+03   -0.37414E-04   -0.37639E-05  6115   0.204E-02    0.840E-02
RMM:   3    -0.651354998925E+03    0.35518E-04   -0.15440E-05  5496   0.230E-02    0.959E-03
RMM:   4    -0.651354998608E+03    0.31664E-06   -0.31958E-06  4340   0.619E-03
  89 F= -.65135500E+03 E0= -.65128751E+03  d E =-.452731E-04
 curvature:  -0.51 expect dE=-0.115E-03 dE for cont linesearch -0.104E-04
 ZBRENT: interpolating
 opt :   0.1537  next Energy=  -651.355001 (dE=-0.478E-04)
 bond charge predicted
       N       E                     dE             d eps       ncg     rms          rms(c)
DAV:   1    -0.651354998999E+03   -0.73822E-07   -0.11737E-04 11208   0.653E-02    0.556E-03
RMM:   2    -0.651355006473E+03   -0.74746E-05   -0.18002E-05  5462   0.143E-02
  90 F= -.65135501E+03 E0= -.65128752E+03  d E =-.531382E-04
 curvature:  -0.00 expect dE=-0.156E-05 dE for cont linesearch -0.988E-09
 trial: gam=-0.15622 g(F)=  0.117E-03 g(S)=  0.238E-03 ort = 0.372E-04 (trialstep = 0.104E+00)
 search vector abs. value=  0.493E-03
 bond charge predicted
       N       E                     dE             d eps       ncg     rms          rms(c)
DAV:   1    -0.651355041145E+03   -0.42146E-04   -0.92568E-04 12432   0.164E-01    0.443E-02
RMM:   2    -0.651355304666E+03   -0.26352E-03   -0.36561E-04  9917   0.717E-02    0.187E-01
RMM:   3    -0.651355034953E+03    0.26971E-03   -0.11333E-04  7284   0.497E-02    0.288E-02
RMM:   4    -0.651355033527E+03    0.14256E-05   -0.18578E-05  5432   0.189E-02
  91 F= -.65135503E+03 E0= -.65128755E+03  d E =-.270538E-04
 ZBRENT: can't locate minimum, use default step
 trial-energy change:   -0.000027  1 .order   -0.000032   -0.000036   -0.000028
 step:   0.4170(harm=  0.4357)  dis= 0.00040  next Energy=  -651.355083 (dE=-0.761E-04)
 bond charge predicted
       N       E                     dE             d eps       ncg     rms          rms(c)
DAV:   1    -0.651355166665E+03   -0.13171E-03   -0.84285E-03 12216   0.484E-01    0.132E-01
RMM:   2    -0.651357328111E+03   -0.21614E-02   -0.32492E-03 11598   0.211E-01    0.534E-01
RMM:   3    -0.651355134292E+03    0.21938E-02   -0.10212E-03 10222   0.135E-01    0.990E-02
RMM:   4    -0.651355123666E+03    0.10625E-04   -0.21131E-04  9989   0.520E-02    0.108E-01
RMM:   5    -0.651355057731E+03    0.65936E-04   -0.79728E-05  8425   0.307E-02    0.411E-02
RMM:   6    -0.651355070325E+03   -0.12594E-04   -0.51148E-05  6666   0.267E-02    0.752E-02
RMM:   7    -0.651355036494E+03    0.33831E-04   -0.29364E-05  5866   0.240E-02    0.144E-02
RMM:   8    -0.651355040985E+03   -0.44914E-05   -0.16503E-05  5515   0.162E-02
  92 F= -.65135504E+03 E0= -.65128753E+03  d E =-.345115E-04
 curvature:  -0.31 expect dE=-0.387E-04 dE for cont linesearch -0.386E-05
 ZBRENT: interpolating
 opt :   0.3455  next Energy=  -651.355044 (dE=-0.373E-04)
 bond charge predicted
       N       E                     dE             d eps       ncg     rms          rms(c)
DAV:   1    -0.651355047284E+03   -0.10791E-04   -0.52216E-04 12576   0.119E-01    0.302E-02
RMM:   2    -0.651355144946E+03   -0.97662E-04   -0.15456E-04  8363   0.474E-02    0.116E-01
RMM:   3    -0.651355043304E+03    0.10164E-03   -0.43630E-05  6188   0.339E-02    0.263E-02
RMM:   4    -0.651355043609E+03   -0.30480E-06   -0.11044E-05  4813   0.158E-02
  93 F= -.65135504E+03 E0= -.65128754E+03  d E =-.371357E-04
 curvature:  -0.22 expect dE=-0.594E-04 dE for cont linesearch -0.930E-05
 ZBRENT: bisectioning
 opt :   0.2249  next Energy=  -651.355067 (dE=-0.610E-04)
 bond charge predicted
       N       E                     dE             d eps       ncg     rms          rms(c)
DAV:   1    -0.651355052624E+03   -0.93194E-05   -0.12370E-03 12456   0.187E-01    0.515E-02
RMM:   2    -0.651355357749E+03   -0.30513E-03   -0.48599E-04 10690   0.810E-02    0.201E-01
RMM:   3    -0.651355052311E+03    0.30544E-03   -0.14966E-04  7718   0.558E-02    0.503E-02
RMM:   4    -0.651355048303E+03    0.40084E-05   -0.29313E-05  5886   0.233E-02
  94 F= -.65135505E+03 E0= -.65128756E+03  d E =-.418296E-04
 curvature:  -0.57 expect dE=-0.194E-03 dE for cont linesearch -0.226E-04
 ZBRENT: bisectioning
 opt :   0.1645  next Energy=  -651.355057 (dE=-0.502E-04)
 bond charge predicted
       N       E                     dE             d eps       ncg     rms          rms(c)
DAV:   1    -0.651355036970E+03    0.15341E-04   -0.33004E-04 12912   0.988E-02    0.306E-02
RMM:   2    -0.651355119217E+03   -0.82246E-04   -0.13313E-04  8014   0.408E-02    0.110E-01
RMM:   3    -0.651355040025E+03    0.79192E-04   -0.43524E-05  6244   0.335E-02    0.434E-02
RMM:   4    -0.651355034734E+03    0.52907E-05   -0.12722E-05  5285   0.165E-02
  95 F= -.65135503E+03 E0= -.65128755E+03  d E =-.282609E-04
 curvature:  -0.21 expect dE=-0.513E-04 dE for cont linesearch -0.261E-05
 ZBRENT: bisectioning
 opt :   0.1344  next Energy=  -651.355037 (dE=-0.302E-04)
 bond charge predicted
       N       E                     dE             d eps       ncg     rms          rms(c)
DAV:   1    -0.651355026752E+03    0.13273E-04   -0.80307E-05 11112   0.522E-02    0.156E-02
RMM:   2    -0.651355043463E+03   -0.16711E-04   -0.26958E-05  5920   0.204E-02    0.486E-02
RMM:   3    -0.651355028300E+03    0.15163E-04   -0.12653E-05  5165   0.212E-02    0.218E-02
RMM:   4    -0.651355027188E+03    0.11125E-05   -0.39755E-06  4393   0.826E-03
  96 F= -.65135503E+03 E0= -.65128754E+03  d E =-.207142E-04
 curvature:  -0.15 expect dE=-0.200E-04 dE for cont linesearch -0.401E-06
 ZBRENT: interpolating
 opt :   0.1439  next Energy=  -651.355027 (dE=-0.209E-04)
 bond charge predicted
       N       E                     dE             d eps       ncg     rms          rms(c)
DAV:   1    -0.651355026976E+03    0.13245E-05   -0.11007E-05  5400   0.262E-02    0.745E-03
RMM:   2    -0.651355040562E+03   -0.13586E-04   -0.99413E-06  5181   0.146E-02    0.490E-02
RMM:   3    -0.651355027862E+03    0.12701E-04   -0.60318E-06  4484   0.128E-02    0.839E-03
RMM:   4    -0.651355027754E+03    0.10771E-06   -0.17760E-06  4392   0.468E-03
  97 F= -.65135503E+03 E0= -.65128754E+03  d E =-.212804E-04
 curvature:  -0.07 expect dE=-0.860E-05 dE for cont linesearch -0.212E-05
 trial: gam=-0.13640 g(F)=  0.913E-04 g(S)=  0.404E-04 ort = 0.127E-03 (trialstep = 0.112E+00)
 search vector abs. value=  0.106E-03
 reached required accuracy - stopping structural energy minimisation
