HECN                                    
           1
     8.932500    0.000000    0.000000
     0.005753    9.055598    0.000000
     0.032102   -0.015743    8.937128
   Ta   W    Ti   N    C    Cr   Mo
   7   6   7  13  19   6   6
Direct configuration=     1
   0.99688001  0.99204997  0.99924002
   0.25398003  0.99714995  0.24912000
   0.24803003  0.50165000  0.24955001
   0.50501006  0.49745998  0.99834003
   0.50479003  0.24631001  0.74710002
   0.99427992  0.50449999  0.49779000
   0.49950005  0.75481999  0.74817004
   0.99437004  0.23617001  0.26379999
   0.75718000  0.74102998  0.01100000
   0.00201000  0.25541000  0.73894001
   0.75307001  0.26163001  0.50533002
   0.99514004  0.74492004  0.74511997
   0.25679999  0.49462002  0.74545002
   0.24788999  0.24839000  0.99657997
   0.50833000  0.25676999  0.25376001
   0.74879004  0.98787999  0.26967001
   0.75719000  0.25603001  0.99591997
   0.24762001  0.74973999  0.99974006
   0.25272001  0.24823001  0.50015003
   0.24457999  0.75048999  0.49983999
   0.24982001  0.24942998  0.24825000
   0.26146999  0.99984002  0.99295996
   0.00281000  0.25024000  0.00130000
   0.75313998  0.24617000  0.25492002
   0.74767001  0.99748000  0.01202000
   0.50714994  0.99977000  0.24673000
   0.99051999  0.48088002  0.24100998
   0.50519005  0.76130999  0.00855000
   0.98896989  0.00202000  0.73708999
   0.75744996  0.24437997  0.74896999
   0.73632001  0.00417000  0.51063000
   0.50563996  0.23264999  0.49544997
   0.50008998  0.00061000  0.73471998
   0.99720000  0.99771992  0.25899999
   0.50427997  0.24673000  0.00262000
   0.25133999  0.74958002  0.24910999
   0.24328000  0.50072997  0.99510994
   0.99837005  0.74313996  0.00460000
   0.75633000  0.73891003  0.25767000
   0.75839004  0.50315998  0.00288000
   0.50700002  0.50333002  0.25878999
   0.24900999  0.25315000  0.74854000
   0.24446000  0.99823996  0.50287998
   0.99804009  0.24229999  0.50128003
   0.24177002  0.75340997  0.75018002
   0.25841001  0.50062002  0.50129001
   0.99000004  0.76215003  0.49746000
   0.99203996  0.50055999  0.75138002
   0.75036005  0.74888000  0.74756004
   0.74036002  0.50197000  0.50067003
   0.50575006  0.74958002  0.49720000
   0.50501003  0.50217998  0.73912003
   0.51588997  0.01358000  0.98075008
   0.99841994  0.50976998  0.98613004
   0.50379003  0.73926997  0.25905001
   0.23780002  0.01082000  0.74607998
   0.47957999  0.98308000  0.49717999
   0.74279003  0.97869994  0.76450995
   0.99864998  0.77573999  0.26102000
   0.73551001  0.51468004  0.26666001
   0.02362000  0.99783001  0.49557002
   0.50539000  0.52833005  0.49917999
   0.73876003  0.52828003  0.73814999
   0.75400003  0.72937999  0.49116997
HECN                                    
           1
     8.174734    0.005684   -0.003040
     0.011028    8.270583    0.004476
     0.026327   -0.009939    8.188116
   Ta   W    Ti   N    C    Cr   Mo
   7   6   7  13  19   6   6
Direct configuration=     2
   0.99579908  0.99279196  0.99671939
   0.25842690  0.99492855  0.24759485
   0.25133133  0.50440840  0.24739412
   0.50421823  0.49293893  0.99906208
   0.50192900  0.24239184  0.74967230
   0.99627236  0.50071973  0.50061769
   0.49579515  0.76063675  0.74881141
   0.99337125  0.23238097  0.26652345
   0.75977985  0.73994962  0.01139724
   0.00846612  0.25796352  0.73500830
   0.75351202  0.26035940  0.50378916
   0.00000380  0.74290586  0.74730424
   0.25586107  0.49626267  0.74924383
   0.24965062  0.24957295  0.99484188
   0.50996717  0.25323123  0.25224811
   0.74329129  0.99013312  0.27084396
   0.75366491  0.25696444  0.99458268
   0.24594607  0.74882093  0.99929747
   0.25372760  0.24876340  0.50198923
   0.24586556  0.75089668  0.50002423
   0.25007772  0.24925373  0.24882249
   0.25717194  0.00027525  0.99559647
   0.00255064  0.24665175  0.00182915
   0.75277762  0.24467836  0.25446229
   0.74983764  0.99724344  0.00836738
   0.50393258  0.99987274  0.24867868
   0.99622613  0.47835778  0.24479363
   0.50480711  0.75816955  0.00476445
   0.98808035  0.00292907  0.74445330
   0.75491676  0.24253781  0.75044427
   0.73639368  0.00654014  0.50706874
   0.50434007  0.23190025  0.49694917
   0.50259431  0.00114156  0.73843462
   0.99702175  0.00322605  0.25098859
   0.50454573  0.24882834  0.00066132
   0.25349622  0.74960502  0.24927605
   0.24578146  0.50023617  0.99667884
   0.99994090  0.74391298  0.00251287
   0.75214629  0.74568056  0.24981955
   0.75704491  0.50195740  0.00288576
   0.49744742  0.50298195  0.25232380
   0.25013056  0.25011868  0.74844056
   0.25493166  0.99766871  0.50427065
   0.99941717  0.24647929  0.50171536
   0.24453731  0.75340643  0.75018608
   0.25193339  0.50020124  0.49911915
   0.99674976  0.75603207  0.50294141
   0.99477796  0.49933887  0.75150648
   0.74852674  0.75856515  0.75103239
   0.74748264  0.49473526  0.50295379
   0.50020728  0.75777569  0.49625118
   0.49874773  0.49974906  0.74618911
   0.51862948  0.01860007  0.97846872
   0.99731876  0.51673334  0.98176667
   0.50456817  0.73659216  0.26080946
   0.23580489  0.01135428  0.74710218
   0.47724980  0.98247870  0.49598732
   0.73956397  0.97391074  0.76657547
   0.00020489  0.77630043  0.25844158
   0.73415583  0.51174211  0.25906412
   0.02147908  0.99896114  0.49655232
   0.50023623  0.52656599  0.49640768
   0.74030478  0.52299845  0.74554511
   0.75503169  0.73669102  0.49189630
HECN                                    
           1
     8.641635    0.002182   -0.001167
     0.007778    8.754274    0.001718
     0.029885   -0.013516    8.649624
   Ta   W    Ti   N    C    Cr   Mo
   7   6   7  13  19   6   6
Direct configuration=     3
   0.99652783  0.99228996  0.99841510
   0.25543229  0.99642869  0.24861861
   0.24911052  0.50254822  0.24884418
   0.50474902  0.49598890  0.99857502
   0.50385273  0.24503481  0.74794166
   0.99492840  0.50327199  0.49871412
   0.49829215  0.75671106  0.74838315
   0.99404121  0.23493774  0.26469072
   0.75802883  0.74067982  0.01112904
   0.00412162  0.25624237  0.73765177
   0.75321422  0.26121624  0.50482484
  -0.00327233  0.74426775  0.74583332
   0.25649304  0.49515543  0.74669327
   0.24846624  0.24877506  0.99601077
   0.50886362  0.25561882  0.25326317
   0.74699420  0.98861096  0.27005666
   0.75603903  0.25633192  0.99548326
   0.24707276  0.74944003  0.99959520
   0.25304900  0.24840469  0.50075228
   0.24500017  0.75062297  0.49990015
   0.24990399  0.24937297  0.24843735
   0.26006522 -0.00001940  0.99382461
   0.00272342  0.24907260  0.00147203
   0.75302099  0.24568434  0.25476966
   0.74837906  0.99740270  0.01082320
   0.50609828  0.99980265  0.24736900
   0.99238220  0.48006340  0.24224670
   0.50506440  0.76028665  0.00730924
   0.98867781  0.00231805  0.73950190
   0.75662104  0.24377997  0.74945274
   0.73634611  0.00493989  0.50946461
   0.50521451  0.23240600  0.49594098
   0.50090753  0.00078546  0.73593603
   0.99714641 -0.00049160  0.25637848
   0.50436830  0.24741212  0.00197928
   0.25204446  0.74958921  0.24916384
   0.24409667  0.50057104  0.99562292
   0.99888419  0.74339144  0.00391640
   0.75496827  0.74110810  0.25510266
   0.75794997  0.50276808  0.00288178
   0.50388038  0.50320999  0.25667469
   0.24937470  0.25216421  0.74850604
   0.24788078  0.99805945  0.50333256
   0.99849190  0.24366057  0.50142379
   0.24267417  0.75341010  0.75018131
   0.25629426  0.50047997  0.50058056
   0.99220107  0.76016460  0.49925111
   0.99293394  0.50016400  0.75142029
   0.74976477  0.75203160  0.74870120
   0.74268317  0.49962022  0.50141347
   0.50394320  0.75224367  0.49689369
   0.50296100  0.50138874  0.74143569
   0.51678801  0.01521377  0.98000414
   0.99806457  0.51203349  0.98470396
   0.50404255  0.73839971  0.25962502
   0.23714815  0.01099329  0.74641543
   0.47881867  0.98288285  0.49678978
   0.74173318  0.97714098  0.76518541
  -0.00084106  0.77592212  0.26017543
   0.73506809  0.51372075  0.26417175
   0.02292078  0.99819741  0.49589266
   0.50370597  0.52775270  0.49827275
   0.73926036  0.52656502  0.74056942
   0.75434040  0.73175946  0.49141027
HECN                                    
           1
     8.627891    0.002285   -0.001222
     0.007873    8.740036    0.001799
     0.029780   -0.013410    8.636039
   Ta   W    Ti   N    C    Cr   Mo
   7   6   7  13  19   6   6
Direct configuration=     4
   0.99650756  0.99230390  0.99836786
   0.25551566  0.99638700  0.24859004
   0.24917239  0.50259997  0.24880378
   0.50473420  0.49590408  0.99858856
   0.50379912  0.24496130  0.74798987
   0.99496578  0.50320105  0.49876713
   0.49822267  0.75682021  0.74839514
   0.99402251  0.23486664  0.26474177
   0.75807758  0.74065953  0.01113650
   0.00424264  0.25629026  0.73757810
   0.75322250  0.26119241  0.50479597
  -0.00318113  0.74422993  0.74587427
   0.25647544  0.49518624  0.74676435
   0.24849924  0.24879726  0.99597820
   0.50889432  0.25555243  0.25323486
   0.74689111  0.98865325  0.27007864
   0.75597293  0.25634947  0.99545819
   0.24704138  0.74942279  0.99958690
   0.25306790  0.24841469  0.50078675
   0.24502427  0.75063060  0.49990361
   0.24990882  0.24936966  0.24844808
   0.25998465 -0.00001122  0.99387400
   0.00271858  0.24900527  0.00148196
   0.75301421  0.24565636  0.25476109
   0.74841969  0.99739827  0.01075476
   0.50603797  0.99980458  0.24740551
   0.99248920  0.48001604  0.24231763
   0.50505723  0.76022775  0.00723831
   0.98866114  0.00233509  0.73963988
   0.75657356  0.24374542  0.74948037
   0.73634747  0.00498437  0.50939786
   0.50519014  0.23239193  0.49596907
   0.50095448  0.00079541  0.73600564
   0.99714302 -0.00038827  0.25622833
   0.50437326  0.24745150  0.00194256
   0.25208489  0.74958967  0.24916696
   0.24414357  0.50056176  0.99565233
   0.99891363  0.74340594  0.00387728
   0.75488978  0.74123518  0.25495551
   0.75792476  0.50274553  0.00288189
   0.50370127  0.50320353  0.25655349
   0.24939572  0.25210733  0.74850419
   0.24807711  0.99804867  0.50335865
   0.99851769  0.24373897  0.50143194
   0.24272605  0.75341002  0.75018143
   0.25617283  0.50047216  0.50053986
   0.99232766  0.76004976  0.49935388
   0.99298527  0.50014108  0.75142268
   0.74973037  0.75221330  0.74876623
   0.74281675  0.49948444  0.50145631
   0.50383925  0.75239746  0.49687586
   0.50284362  0.50134314  0.74156816
   0.51683934  0.01530795  0.97996138
   0.99804388  0.51216416  0.98462216
   0.50405716  0.73834946  0.25965800
   0.23711074  0.01100332  0.74643458
   0.47877498  0.98287158  0.49676742
   0.74167272  0.97705113  0.76522413
  -0.00081192  0.77593263  0.26012711
   0.73504270  0.51366566  0.26402941
   0.02288064  0.99821863  0.49591106
   0.50360935  0.52771964  0.49822079
   0.73928936  0.52646589  0.74070803
   0.75435970  0.73189662  0.49142385
HECN                                    
           1
     8.624743    0.009175   -0.000217
     0.014862    8.694647    0.005971
     0.030764   -0.009196    8.638648
   Ta   W    Ti   N    C    Cr   Mo
   7   6   7  13  19   6   6
Direct configuration=     5
   0.99703704  0.99474876  0.99417506
   0.26087591  0.99544417  0.24626876
   0.25166257  0.50425456  0.24587608
   0.50267957  0.49252460  0.99975305
   0.50070951  0.24115569  0.75054760
   0.99918513  0.49921634  0.50035112
   0.49346301  0.76288138  0.75047585
   0.99425846  0.23301474  0.26376325
   0.75869404  0.74259941  0.00978778
   0.01054166  0.25735147  0.73767043
   0.75232297  0.25782835  0.50244178
   0.00221821  0.74375112  0.74999860
   0.25349325  0.49825796  0.75146094
   0.25096294  0.24969786  0.99491657
   0.50942721  0.25113916  0.25120626
   0.74133227  0.99204214  0.26981859
   0.75185159  0.25606162  0.99459669
   0.24652371  0.74890249  0.99920400
   0.25481508  0.24888129  0.50198742
   0.24715870  0.75107434  0.49995412
   0.25111359  0.24920289  0.24885709
   0.25725591  0.00034500  0.99514925
   0.00248589  0.24692688  0.00234005
   0.75053846  0.24394973  0.25205338
   0.74885317  0.99833638  0.00742558
   0.50390370  0.99969951  0.24822607
   0.99741491  0.48017041  0.24420818
   0.50322238  0.75857085  0.00449382
   0.98724155  0.00317094  0.74694328
   0.75429148  0.24160077  0.75254489
   0.73710020  0.00606803  0.50767314
   0.50264880  0.23220214  0.49645583
   0.50286429  0.00131931  0.73990080
   0.99599705  0.00506135  0.24795407
   0.50423939  0.24834951  0.00181506
   0.25568008  0.74954642  0.24914864
   0.24516586  0.49992833  0.99737545
   0.00301348  0.74304680  0.00266857
   0.74918204  0.74992950  0.24768174
   0.75847993  0.49867121  0.00320772
   0.49322055  0.50227546  0.25001432
   0.25138176  0.24739324  0.74858930
   0.26000358  0.99770876  0.50643098
   0.00231881  0.24784926  0.50176011
   0.24616230  0.75490851  0.75048863
   0.24996467  0.49989086  0.49826973
   0.00048100  0.75367838  0.50458689
   0.99578318  0.49848383  0.75277835
   0.74806028  0.76229679  0.75167861
   0.74860672  0.49340654  0.50346442
   0.49760748  0.76278209  0.49478108
   0.49681809  0.49891095  0.74779627
   0.51852709  0.01921049  0.97858484
   0.99762083  0.51816937  0.98147159
   0.50383298  0.73735858  0.26038390
   0.23529777  0.01029408  0.74830542
   0.47797478  0.98364541  0.49448399
   0.73812048  0.97496646  0.76761302
   0.00173483  0.77096799  0.25496062
   0.73611660  0.50680146  0.25353331
   0.01726316  0.00056701  0.49849639
   0.49757068  0.52103603  0.49529183
   0.74230589  0.51784460  0.75161382
   0.75332189  0.74263017  0.49424614
HECN                                    
           1
     8.624690    0.009290   -0.000201
     0.014980    8.693885    0.006041
     0.030780   -0.009125    8.638692
   Ta   W    Ti   N    C    Cr   Mo
   7   6   7  13  19   6   6
Direct configuration=     6
   0.99704591  0.99479006  0.99410465
   0.26096596  0.99542820  0.24622979
   0.25170439  0.50428248  0.24582691
   0.50264510  0.49246758  0.99977262
   0.50065766  0.24109148  0.75059057
   0.99925605  0.49914901  0.50037774
   0.49338297  0.76298373  0.75051074
   0.99426245  0.23298349  0.26374684
   0.75870437  0.74263216  0.00976512
   0.01064745  0.25736930  0.73767196
   0.75230791  0.25777160  0.50240229
   0.00230890  0.74374293  0.75006783
   0.25344310  0.49830981  0.75153976
   0.25100432  0.24971304  0.99489873
   0.50943623  0.25106468  0.25117224
   0.74123885  0.99209942  0.26981421
   0.75178237  0.25605682  0.99458224
   0.24651502  0.74889371  0.99919757
   0.25484442  0.24888913  0.50200757
   0.24719454  0.75108180  0.49995496
   0.25113383  0.24920006  0.24886395
   0.25721007  0.00035104  0.99517066
   0.00248201  0.24689180  0.00235447
   0.75049690  0.24392098  0.25200795
   0.74886044  0.99835223  0.00736969
   0.50386785  0.99969776  0.24823985
   0.99749764  0.48017294  0.24423991
   0.50319158  0.75854293  0.00444777
   0.98721767  0.00318501  0.74706588
   0.75425317  0.24156457  0.75259636
   0.73711283  0.00608632  0.50764418
   0.50260611  0.23219897  0.49646401
   0.50289636  0.00132810  0.73996618
   0.99597774  0.00515342  0.24781513
   0.50423713  0.24836467  0.00181291
   0.25574047  0.74954564  0.24914833
   0.24518304  0.49991761  0.99740437
   0.00308235  0.74304069  0.00264828
   0.74908606  0.75007639  0.24755958
   0.75848931  0.49860242  0.00321323
   0.49304452  0.50225999  0.24990458
   0.25141519  0.24731364  0.74859077
   0.26020392  0.99770284  0.50648253
   0.00238260  0.24791858  0.50176558
   0.24622000  0.75493376  0.75049377
   0.24986040  0.49988115  0.49823163
   0.00061804  0.75357069  0.50467477
   0.99583020  0.49845581  0.75280112
   0.74803208  0.76246699  0.75172742
   0.74870406  0.49330385  0.50349817
   0.49750266  0.76295748  0.49474584
   0.49671689  0.49886993  0.74790086
   0.51855539  0.01927636  0.97856170
   0.99761365  0.51827077  0.98141866
   0.50382923  0.73734185  0.26039610
   0.23526732  0.01028212  0.74833683
   0.47796133  0.98365850  0.49444566
   0.73806083  0.97493130  0.76765315
   0.00177769  0.77088420  0.25487393
   0.73613475  0.50668567  0.25335717
   0.01716876  0.00060670  0.49853978
   0.49746934  0.52092332  0.49524273
   0.74235666  0.51769895  0.75179696
   0.75330430  0.74281134  0.49429343
HECN                                    
           1
     8.700777    0.007160    0.000471
     0.012906    8.748720    0.006910
     0.031727   -0.008378    8.710243
   Ta   W    Ti   N    C    Cr   Mo
   7   6   7  13  19   6   6
Direct configuration=     7
   0.99825038  0.99544776  0.99150461
   0.26148995  0.99440270  0.24708531
   0.25013074  0.50509043  0.24427111
   0.50202636  0.49187829  0.99994636
   0.49873143  0.23998386  0.75142345
   0.00102966  0.49911414  0.50061504
   0.49291917  0.76288752  0.75015102
   0.99278710  0.23508132  0.26350409
   0.76076151  0.74332153  0.00735495
   0.01430687  0.25597897  0.73963076
   0.75296756  0.25403815  0.49996022
   0.00383335  0.74182476  0.75316851
   0.25145502  0.49948604  0.75404771
   0.25210456  0.24952118  0.99431731
   0.50956093  0.24870569  0.25032716
   0.73857506  0.99473122  0.26904964
   0.74955910  0.25427811  0.99412400
   0.24728738  0.74904824  0.99940485
   0.25589541  0.24823887  0.50310007
   0.24844598  0.75174921  0.49950439
   0.25162419  0.24839001  0.24934404
   0.25587437  0.00092859  0.99626615
   0.00222662  0.24563214  0.00325291
   0.74901621  0.24279331  0.24986115
   0.74815584  0.99915447  0.00439494
   0.50356029  0.00001578  0.24756759
   0.99934765  0.48249459  0.24602735
   0.50211162  0.75790783  0.00191871
   0.98647804  0.00322520  0.74883625
   0.75420007  0.24121825  0.75314231
   0.73961104  0.00587201  0.50748304
   0.50186004  0.23501659  0.49686180
   0.50380012  0.00141205  0.74292611
   0.99648506  0.00035518  0.24640397
   0.50361298  0.24793012  0.00234118
   0.25833976  0.75033191  0.24907474
   0.24424727  0.49958272  0.99813361
   0.00427890  0.74413165  0.00338344
   0.74521892  0.75077936  0.24844567
   0.76005494  0.49700733  0.00417874
   0.49479858  0.50219928  0.24869219
   0.25275859  0.24548589  0.74846433
   0.25939203  0.99864679  0.50881413
   0.00479955  0.24961347  0.50115363
   0.24757116  0.75665020  0.75088086
   0.24851655  0.49991053  0.49790018
   0.00295702  0.75118789  0.50479475
   0.99690843  0.49759414  0.75404327
   0.74865839  0.75999421  0.75119715
   0.74797915  0.49665313  0.50305713
   0.49664062  0.76155863  0.49324706
   0.49661773  0.49946775  0.74788036
   0.52022535  0.02093266  0.97838715
   0.99755705  0.52266326  0.97832346
   0.50240160  0.73546529  0.26289967
   0.23164856  0.00798357  0.74878662
   0.48000752  0.98620521  0.49129434
   0.73387422  0.97781420  0.77104307
   0.00185844  0.77145443  0.25195584
   0.73270032  0.50603569  0.25062570
   0.01773650  0.00156525  0.49866331
   0.49802869  0.52033793  0.49347053
   0.74211208  0.51841692  0.75785990
   0.75203081  0.74317633  0.49423125
HECN                                    
           1
     8.689318    0.007480    0.000370
     0.013218    8.740462    0.006779
     0.031585   -0.008490    8.699467
   Ta   W    Ti   N    C    Cr   Mo
   7   6   7  13  19   6   6
Direct configuration=     8
   0.99807051  0.99534925  0.99189300
   0.26141177  0.99455617  0.24695751
   0.25036562  0.50496955  0.24450349
   0.50211875  0.49196651  0.99992040
   0.49901905  0.24014972  0.75129900
   0.00076488  0.49911929  0.50057962
   0.49298841  0.76290193  0.75020474
   0.99300727  0.23476741  0.26354037
   0.76045434  0.74321825  0.00771499
   0.01376063  0.25618694  0.73933820
   0.75286919  0.25459685  0.50032494
   0.00360587  0.74211183  0.75270536
   0.25175181  0.49931012  0.75367309
   0.25194031  0.24954984  0.99440417
   0.50954239  0.24905873  0.25045336
   0.73897263  0.99433743  0.26916385
   0.74989107  0.25454439  0.99419239
   0.24717207  0.74902509  0.99937390
   0.25573855  0.24833617  0.50293689
   0.24825912  0.75164927  0.49957172
   0.25155102  0.24851123  0.24927233
   0.25607377  0.00084222  0.99610251
   0.00226480  0.24582069  0.00311869
   0.74923728  0.24296211  0.25018178
   0.74826096  0.99903439  0.00483928
   0.50360619 -0.00003181  0.24766801
   0.99907140  0.48214708  0.24576042
   0.50227284  0.75800288  0.00229645
   0.98658848  0.00321924  0.74857181
   0.75420802  0.24127010  0.75306075
   0.73923809  0.00590399  0.50750714
   0.50197132  0.23459494  0.49680242
   0.50366523  0.00139949  0.74248400
   0.99640948  0.00107326  0.24661469
   0.50370618  0.24799518  0.00226226
   0.25795169  0.75021413  0.24908577
   0.24438699  0.49963289  0.99802467
   0.00410024  0.74396834  0.00327366
   0.74579623  0.75067431  0.24831328
   0.75982128  0.49724601  0.00403452
   0.49453670  0.50220828  0.24887330
   0.25255810  0.24575939  0.74848320
   0.25951323  0.99850558  0.50846586
   0.00443866  0.24935971  0.50124509
   0.24736938  0.75639327  0.75082308
   0.24871716  0.49990618  0.49794967
   0.00260793  0.75154442  0.50477682
   0.99674750  0.49772308  0.75385773
   0.74856497  0.76036426  0.75127633
   0.74808724  0.49615189  0.50312304
   0.49676935  0.76176800  0.49347090
   0.49663251  0.49937828  0.74788343
   0.51997598  0.02068470  0.97841326
   0.99756530  0.52200583  0.97878585
   0.50261483  0.73574623  0.26252567
   0.23218889  0.00832772  0.74871936
   0.47970191  0.98582394  0.49176511
   0.73449917  0.97738295  0.77053671
   0.00184633  0.77136905  0.25239172
   0.73321304  0.50613306  0.25103365
   0.01765171  0.00142177  0.49864488
   0.49794518  0.52042550  0.49373524
   0.74214864  0.51830956  0.75695429
   0.75222092  0.74312175  0.49424053
HECN                                    
           1
     8.663724    0.004257    0.001323
     0.009972    8.699819    0.006111
     0.032451   -0.009106    8.668947
   Ta   W    Ti   N    C    Cr   Mo
   7   6   7  13  19   6   6
Direct configuration=     9
   0.99960582  0.99618417  0.99002879
   0.26148029  0.99365366  0.24883768
   0.24958212  0.50561761  0.24344926
   0.50163591  0.49172594  0.99957210
   0.49737806  0.23964267  0.75184014
   0.00102740  0.49959120  0.50121869
   0.49410761  0.76207830  0.74919803
   0.99057854  0.23411487  0.26323103
   0.76314803  0.74393118  0.00548429
   0.01750355  0.25407194  0.74073578
   0.75459207  0.25223150  0.49681241
   0.00460401  0.74012192  0.75501144
   0.25057554  0.50049535  0.75579599
   0.25259726  0.24907597  0.99383130
   0.50959315  0.24707746  0.25003962
   0.73682398  0.99649663  0.26849160
   0.74779142  0.25210089  0.99351242
   0.24826436  0.74954047  0.99961560
   0.25673489  0.24753406  0.50440368
   0.24945942  0.75259537  0.49913979
   0.25165405  0.24772181  0.24986200
   0.25446317  0.00147405  0.99770378
   0.00203439  0.24421264  0.00404302
   0.74799171  0.24193645  0.24808111
   0.74782415  0.99933689  0.00175565
   0.50315797  0.00067178  0.24653841
   0.00084197  0.48424421  0.24844187
   0.50151571  0.75701985 -0.00097270
   0.98601449  0.00292383  0.74904536
   0.75425887  0.24086707  0.75264998
   0.74202707  0.00619564  0.50716194
   0.50199942  0.23815520  0.49752487
   0.50424269  0.00117522  0.74539719
   0.99695473 -0.00107121  0.24678962
   0.50292488  0.24773870  0.00252382
   0.25976738  0.75087479  0.24896115
   0.24336146  0.49940105  0.99854546
   0.00506046  0.74577701  0.00425235
   0.74244081  0.75021657  0.24908066
   0.76166205  0.49632615  0.00540059
   0.49599109  0.50204854  0.24805863
   0.25398137  0.24461202  0.74843513
   0.25824720  0.99945399  0.51057955
   0.00645439  0.25060348  0.50144778
   0.24823692  0.75795005  0.75122085
   0.24868147  0.50006421  0.49794611
   0.00353507  0.75049787  0.50436210
   0.99704249  0.49649063  0.75451234
   0.74969930  0.75800856  0.75032845
   0.74719176  0.49901088  0.50297376
   0.49690320  0.75946099  0.49235887
   0.49706490  0.50039646  0.74701219
   0.52210617  0.02225471  0.97832271
   0.99724257  0.52653398  0.97555258
   0.50116503  0.73365395  0.26660523
   0.22693616  0.00552464  0.74857373
   0.48117432  0.98860147  0.48788174
   0.72948837  0.97933774  0.77492548
   0.00116226  0.77119578  0.25020257
   0.72964044  0.50697524  0.25007536
   0.01866692  0.00221726  0.49835998
   0.49923990  0.52015727  0.49192184
   0.74163574  0.52016746  0.76182548
   0.75123246  0.74170371  0.49348190
HECN                                    
           1
     8.663635    0.004246    0.001326
     0.009961    8.699678    0.006109
     0.032454   -0.009108    8.668841
   Ta   W    Ti   N    C    Cr   Mo
   7   6   7  13  19   6   6
Direct configuration=    10
   0.99961116  0.99618708  0.99002230
   0.26148053  0.99365052  0.24884422
   0.24957940  0.50561987  0.24344560
   0.50163423  0.49172510  0.99957089
   0.49737236  0.23964090  0.75184203
   0.00102831  0.49959285  0.50122091
   0.49411150  0.76207543  0.74919453
   0.99057010  0.23411260  0.26322995
   0.76315740  0.74393367  0.00547652
   0.01751656  0.25406458  0.74074064
   0.75459806  0.25222327  0.49680019
   0.00460748  0.74011499  0.75501946
   0.25057145  0.50049947  0.75580337
   0.25259954  0.24907432  0.99382931
   0.50959333  0.24707056  0.25003818
   0.73681652  0.99650415  0.26848926
   0.74778412  0.25209238  0.99351006
   0.24826816  0.74954226  0.99961644
   0.25673835  0.24753127  0.50440878
   0.24946360  0.75259867  0.49913828
   0.25165441  0.24771906  0.24986405
   0.25445757  0.00147625  0.99770936
   0.00203359  0.24420704  0.00404623
   0.74798738  0.24193287  0.24807381
   0.74782263  0.99933795  0.00174493
   0.50315641  0.00067423  0.24653448
   0.00084813  0.48425152  0.24845120
   0.50151308  0.75701642 -0.00098408
   0.98601249  0.00292280  0.74904701
   0.75425905  0.24086566  0.75264855
   0.74203677  0.00619665  0.50716073
   0.50199952  0.23816760  0.49752739
   0.50424470  0.00117444  0.74540733
   0.99695662 -0.00107868  0.24679023
   0.50292216  0.24773781  0.00252473
   0.25977369  0.75087709  0.24896072
   0.24335790  0.49940024  0.99854728
   0.00506381  0.74578331  0.00425576
   0.74242914  0.75021497  0.24908333
   0.76166845  0.49632294  0.00540534
   0.49599615  0.50204798  0.24805580
   0.25398632  0.24460802  0.74843497
   0.25824280  0.99945729  0.51058691
   0.00646140  0.25060782  0.50144848
   0.24823994  0.75795547  0.75122223
   0.24868135  0.50006476  0.49794609
   0.00353830  0.75049423  0.50436066
   0.99704351  0.49648634  0.75451462
   0.74970324  0.75800035  0.75032516
   0.74718865  0.49902083  0.50297324
   0.49690366  0.75945295  0.49235500
   0.49706641  0.50040001  0.74700916
   0.52211358  0.02226018  0.97832240
   0.99724145  0.52654975  0.97554134
   0.50115999  0.73364666  0.26661942
   0.22691789  0.00551487  0.74857322
   0.48117945  0.98861114  0.48786823
   0.72947095  0.97934455  0.77494075
   0.00115989  0.77119518  0.25019496
   0.72962802  0.50697817  0.25007203
   0.01867045  0.00222003  0.49835899
   0.49924440  0.52015633  0.49191553
   0.74163396  0.52017393  0.76184242
   0.75122902  0.74169877  0.49347926
HECN                                    
           1
     8.662933    0.004169    0.004084
     0.009886    8.698304    0.003950
     0.035211   -0.011262    8.670787
   Ta   W    Ti   N    C    Cr   Mo
   7   6   7  13  19   6   6
Direct configuration=    11
   0.00105413  0.99732646  0.99036242
   0.26141727  0.99403195  0.25079488
   0.25019277  0.50517865  0.24383975
   0.50128829  0.49237822  0.99873832
   0.49734749  0.24029251  0.75141835
  -0.00015656  0.50009541  0.50180387
   0.49627540  0.76100521  0.74806480
   0.98872932  0.23166519  0.26240514
   0.76410711  0.74505221  0.00442503
   0.01860111  0.25164900  0.74173607
   0.75652888  0.25255036  0.49347821
   0.00459182  0.74040618  0.75474198
   0.25087309  0.50167240  0.75595488
   0.25229316  0.24856810  0.99385236
   0.50902220  0.24642304  0.25043643
   0.73654345  0.99665237  0.26797017
   0.74702981  0.25002216  0.99291119
   0.24956170  0.75047883  0.99967448
   0.25737340  0.24728839  0.50521077
   0.25012423  0.75328542  0.49920322
   0.25129957  0.24754850  0.25032751
   0.25355955  0.00174297  0.99872940
   0.00193597  0.24356393  0.00462245
   0.74715979  0.24158780  0.24626129
   0.74826809  0.99895907  0.00108813
   0.50274435  0.00127110  0.24487099
   0.00162645  0.48526451  0.25053382
   0.50127103  0.75611196 -0.00321971
   0.98548182  0.00206017  0.74776598
   0.75423856  0.23997619  0.75139288
   0.74341180  0.00699616  0.50678379
   0.50277187  0.24053003  0.49804360
   0.50348130  0.00094379  0.74635149
   0.99667881  0.00104094  0.24774919
   0.50227435  0.24786558  0.00263369
   0.25976050  0.75067864  0.24886540
   0.24263183  0.49945050  0.99870209
   0.00655940  0.74764942  0.00470981
   0.74102806  0.75003495  0.24802930
   0.76316086  0.49595792  0.00676173
   0.49409697  0.50128979  0.24713508
   0.25521860  0.24433139  0.74867404
   0.25907253  0.99961357  0.51163551
   0.00740258  0.25089236  0.50236443
   0.24850794  0.75871077  0.75131709
   0.24977450  0.50024380  0.49834535
   0.00302818  0.75145190  0.50404265
   0.99614988  0.49497765  0.75395830
   0.75081139  0.75920293  0.74952288
   0.74744024  0.49839746  0.50388260
   0.49747000  0.75958384  0.49252351
   0.49727080  0.50100458  0.74608331
   0.52282376  0.02254779  0.97912069
   0.99674462  0.52742739  0.97524209
   0.50065203  0.73332828  0.27011714
   0.22276547  0.00338586  0.74789980
   0.48129321  0.99080367  0.48551139
   0.72680995  0.97916078  0.77737677
   0.00016359  0.76871999  0.25029081
   0.72980918  0.50798052  0.25113373
   0.01786469  0.00289772  0.49875725
   0.49993791  0.51802438  0.49137480
   0.74187319  0.52012368  0.76284644
   0.75087714  0.74064345  0.49281933
HECN                                    
           1
     8.662425    0.004114    0.006075
     0.009832    8.697312    0.002391
     0.037203   -0.012818    8.672193
   Ta   W    Ti   N    C    Cr   Mo
   7   6   7  13  19   6   6
Direct configuration=    12
   0.00209629  0.99814954  0.99060787
   0.26137114  0.99430782  0.25220344
   0.25063570  0.50486003  0.24412413