  64  64   0   0
  0.1096408E+02  0.8927310E-09  0.8877778E-09  0.8853849E-09  0.5000000E-15
  1.000000000000000E-004
  CAR 
 HECN                                    
     12.87941694    -38.15022092  301      8.04673263      1.00000000
    -38.150  0.0000E+00  0.0000E+00
    -37.980  0.0000E+00  0.0000E+00
    -37.810  0.0000E+00  0.0000E+00
    -37.640  0.0000E+00  0.0000E+00
    -37.470  0.0000E+00  0.0000E+00
    -37.300  0.0000E+00  0.0000E+00
    -37.130  0.0000E+00  0.0000E+00
    -36.960  0.0000E+00  0.0000E+00
    -36.789  0.0000E+00  0.0000E+00
    -36.619  0.0000E+00  0.0000E+00
    -36.449  0.0000E+00  0.0000E+00
    -36.279  0.1329E-10  0.2260E-11
    -36.109  0.4851E-05  0.8252E-06
    -35.939  0.7421E-02  0.1263E-02
    -35.769  0.1086E+00  0.1974E-01
    -35.599  0.3367E+00  0.7701E-01
    -35.429  0.1057E+01  0.2568E+00
    -35.259  0.5822E+00  0.3559E+00
    -35.088  0.2431E-01  0.3600E+00
    -34.918  0.1646E-04  0.3600E+00
    -34.748  0.5726E-10  0.3600E+00
    -34.578  0.0000E+00  0.3600E+00
    -34.408  0.0000E+00  0.3600E+00
    -34.238  0.0000E+00  0.3600E+00
    -34.068  0.0000E+00  0.3600E+00
    -33.898  0.0000E+00  0.3600E+00
    -33.728  0.0000E+00  0.3600E+00
    -33.558  0.0000E+00  0.3600E+00
    -33.387  0.0000E+00  0.3600E+00
    -33.217  0.0000E+00  0.3600E+00
    -33.047  0.0000E+00  0.3600E+00
    -32.877  0.0000E+00  0.3600E+00
    -32.707  0.0000E+00  0.3600E+00
    -32.537  0.0000E+00  0.3600E+00
    -32.367  0.0000E+00  0.3600E+00
    -32.197  0.0000E+00  0.3600E+00
    -32.027  0.0000E+00  0.3600E+00
    -31.857  0.0000E+00  0.3600E+00
    -31.686  0.0000E+00  0.3600E+00
    -31.516  0.0000E+00  0.3600E+00
    -31.346  0.0000E+00  0.3600E+00
    -31.176  0.0000E+00  0.3600E+00
    -31.006  0.0000E+00  0.3600E+00
    -30.836  0.0000E+00  0.3600E+00
    -30.666  0.0000E+00  0.3600E+00
    -30.496  0.0000E+00  0.3600E+00
    -30.326  0.0000E+00  0.3600E+00
    -30.156  0.0000E+00  0.3600E+00
    -29.985  0.0000E+00  0.3600E+00
    -29.815  0.0000E+00  0.3600E+00
    -29.645  0.0000E+00  0.3600E+00
    -29.475  0.0000E+00  0.3600E+00
    -29.305  0.0000E+00  0.3600E+00
    -29.135  0.0000E+00  0.3600E+00
    -28.965  0.0000E+00  0.3600E+00
    -28.795  0.6527E-17  0.3600E+00
    -28.625  0.1553E-09  0.3600E+00
    -28.455  0.2325E-04  0.3600E+00
    -28.284  0.1773E-01  0.3630E+00
    -28.114  0.2843E+00  0.4114E+00
    -27.944  0.7572E+00  0.5402E+00
    -27.774  0.6760E+00  0.6552E+00
    -27.604  0.5690E+00  0.7519E+00
    -27.434  0.4263E+00  0.8244E+00
    -27.264  0.3694E+00  0.8873E+00
    -27.094  0.3995E+00  0.9552E+00
    -26.924  0.3383E+00  0.1013E+01
    -26.754  0.2966E+00  0.1063E+01
    -26.584  0.9784E-01  0.1080E+01
    -26.413  0.6504E-03  0.1080E+01
    -26.243  0.2847E-02  0.1080E+01
    -26.073  0.1780E+00  0.1111E+01
    -25.903  0.6236E+00  0.1217E+01
    -25.733  0.8181E+00  0.1356E+01
    -25.563  0.6013E+00  0.1458E+01
    -25.393  0.2343E+00  0.1498E+01
    -25.223  0.1087E-01  0.1500E+01
    -25.053  0.5642E-05  0.1500E+01
    -24.883  0.1468E-10  0.1500E+01
    -24.712  0.0000E+00  0.1500E+01
    -24.542  0.0000E+00  0.1500E+01
    -24.372  0.0000E+00  0.1500E+01
    -24.202  0.0000E+00  0.1500E+01
    -24.032  0.0000E+00  0.1500E+01
    -23.862  0.0000E+00  0.1500E+01
    -23.692  0.0000E+00  0.1500E+01
    -23.522  0.0000E+00  0.1500E+01
    -23.352  0.0000E+00  0.1500E+01
    -23.182  0.0000E+00  0.1500E+01
    -23.011  0.0000E+00  0.1500E+01
    -22.841  0.0000E+00  0.1500E+01
    -22.671  0.0000E+00  0.1500E+01
    -22.501  0.0000E+00  0.1500E+01
    -22.331  0.0000E+00  0.1500E+01
    -22.161  0.0000E+00  0.1500E+01
    -21.991  0.0000E+00  0.1500E+01
    -21.821  0.0000E+00  0.1500E+01
    -21.651  0.0000E+00  0.1500E+01
    -21.481  0.0000E+00  0.1500E+01
    -21.310  0.0000E+00  0.1500E+01
    -21.140  0.0000E+00  0.1500E+01
    -20.970  0.0000E+00  0.1500E+01
    -20.800  0.0000E+00  0.1500E+01
    -20.630  0.0000E+00  0.1500E+01
    -20.460  0.0000E+00  0.1500E+01
    -20.290  0.0000E+00  0.1500E+01
    -20.120  0.0000E+00  0.1500E+01
    -19.950  0.0000E+00  0.1500E+01
    -19.780  0.0000E+00  0.1500E+01
    -19.609  0.0000E+00  0.1500E+01
    -19.439  0.0000E+00  0.1500E+01
    -19.269  0.0000E+00  0.1500E+01
    -19.099  0.0000E+00  0.1500E+01
    -18.929  0.0000E+00  0.1500E+01
    -18.759  0.0000E+00  0.1500E+01
    -18.589  0.0000E+00  0.1500E+01
    -18.419  0.0000E+00  0.1500E+01
    -18.249  0.0000E+00  0.1500E+01
    -18.079  0.0000E+00  0.1500E+01
    -17.908  0.0000E+00  0.1500E+01
    -17.738  0.0000E+00  0.1500E+01
    -17.568  0.0000E+00  0.1500E+01
    -17.398  0.0000E+00  0.1500E+01
    -17.228  0.0000E+00  0.1500E+01
    -17.058  0.0000E+00  0.1500E+01
    -16.888  0.0000E+00  0.1500E+01
    -16.718  0.0000E+00  0.1500E+01
    -16.548  0.0000E+00  0.1500E+01
    -16.378  0.0000E+00  0.1500E+01
    -16.207  0.0000E+00  0.1500E+01
    -16.037  0.0000E+00  0.1500E+01
    -15.867  0.0000E+00  0.1500E+01
    -15.697  0.0000E+00  0.1500E+01
    -15.527  0.0000E+00  0.1500E+01
    -15.357  0.0000E+00  0.1500E+01
    -15.187  0.0000E+00  0.1500E+01
    -15.017  0.0000E+00  0.1500E+01
    -14.847  0.0000E+00  0.1500E+01
    -14.677  0.0000E+00  0.1500E+01
    -14.506  0.0000E+00  0.1500E+01
    -14.336  0.0000E+00  0.1500E+01
    -14.166  0.0000E+00  0.1500E+01
    -13.996  0.0000E+00  0.1500E+01
    -13.826  0.0000E+00  0.1500E+01
    -13.656  0.0000E+00  0.1500E+01
    -13.486  0.0000E+00  0.1500E+01
    -13.316  0.0000E+00  0.1500E+01
    -13.146  0.0000E+00  0.1500E+01
    -12.976  0.0000E+00  0.1500E+01
    -12.806  0.0000E+00  0.1500E+01
    -12.635  0.0000E+00  0.1500E+01
    -12.465  0.0000E+00  0.1500E+01
    -12.295  0.0000E+00  0.1500E+01
    -12.125  0.0000E+00  0.1500E+01
    -11.955  0.0000E+00  0.1500E+01
    -11.785  0.0000E+00  0.1500E+01
    -11.615  0.0000E+00  0.1500E+01
    -11.445  0.0000E+00  0.1500E+01
    -11.275  0.0000E+00  0.1500E+01
    -11.105  0.0000E+00  0.1500E+01
    -10.934  0.0000E+00  0.1500E+01
    -10.764  0.0000E+00  0.1500E+01
    -10.594  0.0000E+00  0.1500E+01
    -10.424  0.0000E+00  0.1500E+01
    -10.254  0.0000E+00  0.1500E+01
    -10.084  0.0000E+00  0.1500E+01
     -9.914  0.0000E+00  0.1500E+01
     -9.744  0.0000E+00  0.1500E+01
     -9.574  0.0000E+00  0.1500E+01
     -9.404  0.0000E+00  0.1500E+01
     -9.233  0.0000E+00  0.1500E+01
     -9.063  0.0000E+00  0.1500E+01
     -8.893  0.0000E+00  0.1500E+01
     -8.723  0.7228E-16  0.1500E+01
     -8.553  0.5250E-09  0.1500E+01
     -8.383  0.1711E-04  0.1500E+01
     -8.213  0.5020E-02  0.1501E+01
     -8.043  0.5519E-01  0.1510E+01
     -7.873  0.6427E-01  0.1521E+01
     -7.703  0.9350E-01  0.1537E+01
     -7.532  0.1305E+00  0.1559E+01
     -7.362  0.1109E+00  0.1578E+01
     -7.192  0.1268E+00  0.1600E+01
     -7.022  0.1949E+00  0.1633E+01
     -6.852  0.1539E+00  0.1659E+01
     -6.682  0.2167E+00  0.1696E+01
     -6.512  0.2217E+00  0.1734E+01
     -6.342  0.6954E-01  0.1745E+01
     -6.172  0.8125E-01  0.1759E+01
     -6.002  0.4193E-02  0.1760E+01
     -5.831  0.1524E-05  0.1760E+01
     -5.661  0.2261E-11  0.1760E+01
     -5.491  0.0000E+00  0.1760E+01
     -5.321  0.4835E-18  0.1760E+01
     -5.151  0.1562E-10  0.1760E+01
     -4.981  0.2089E-05  0.1760E+01
     -4.811  0.1486E-02  0.1760E+01
     -4.641  0.2864E-01  0.1765E+01
     -4.471  0.6820E-01  0.1777E+01
     -4.301  0.2095E-01  0.1780E+01
     -4.130  0.5603E-01  0.1790E+01
     -3.960  0.1164E+00  0.1810E+01
     -3.790  0.1298E+00  0.1832E+01
     -3.620  0.1573E+00  0.1858E+01
     -3.450  0.2318E+00  0.1898E+01
     -3.280  0.2286E+00  0.1937E+01
     -3.110  0.2286E+00  0.1976E+01
     -2.940  0.2149E+00  0.2012E+01
     -2.770  0.2218E+00  0.2050E+01
     -2.600  0.1966E+00  0.2083E+01
     -2.429  0.1596E+00  0.2111E+01
     -2.259  0.9864E-01  0.2127E+01
     -2.089  0.4618E-01  0.2135E+01
     -1.919  0.2544E-01  0.2139E+01
     -1.749  0.3112E-02  0.2140E+01
     -1.579  0.1836E-04  0.2140E+01
     -1.409  0.8816E-09  0.2140E+01
     -1.239  0.1692E-15  0.2140E+01
     -1.069  0.0000E+00  0.2140E+01
     -0.899  0.0000E+00  0.2140E+01
     -0.728  0.0000E+00  0.2140E+01
     -0.558  0.0000E+00  0.2140E+01
     -0.388  0.4110E-17  0.2140E+01
     -0.218  0.6392E-10  0.2140E+01
     -0.048  0.3741E-05  0.2140E+01
      0.122  0.1207E-02  0.2140E+01
      0.292  0.8931E-02  0.2142E+01
      0.462  0.2259E-01  0.2146E+01
      0.632  0.7757E-01  0.2159E+01
      0.802  0.1063E+00  0.2177E+01
      0.973  0.1119E+00  0.2196E+01
      1.143  0.1435E+00  0.2220E+01
      1.313  0.1888E+00  0.2252E+01
      1.483  0.2359E+00  0.2293E+01
      1.653  0.2832E+00  0.2341E+01
      1.823  0.2932E+00  0.2391E+01
      1.993  0.2593E+00  0.2435E+01
      2.163  0.3054E+00  0.2487E+01
      2.333  0.3661E+00  0.2549E+01
      2.503  0.3693E+00  0.2612E+01
      2.673  0.4031E+00  0.2680E+01
      2.844  0.4225E+00  0.2752E+01
      3.014  0.4859E+00  0.2835E+01
      3.184  0.5604E+00  0.2930E+01
      3.354  0.6207E+00  0.3036E+01
      3.524  0.6342E+00  0.3144E+01
      3.694  0.6385E+00  0.3252E+01
      3.864  0.6282E+00  0.3359E+01
      4.034  0.5847E+00  0.3459E+01
      4.204  0.5235E+00  0.3548E+01
      4.374  0.4831E+00  0.3630E+01
      4.545  0.4486E+00  0.3706E+01
      4.715  0.3874E+00  0.3772E+01
      4.885  0.3434E+00  0.3830E+01
      5.055  0.3052E+00  0.3882E+01
      5.225  0.2759E+00  0.3929E+01
      5.395  0.2276E+00  0.3968E+01
      5.565  0.1913E+00  0.4000E+01
      5.735  0.1721E+00  0.4030E+01
      5.905  0.1274E+00  0.4051E+01
      6.075  0.7007E-01  0.4063E+01
      6.246  0.1261E+00  0.4085E+01
      6.416  0.1568E+00  0.4111E+01
      6.586  0.1808E+00  0.4142E+01
      6.756  0.1614E+00  0.4170E+01
      6.926  0.2313E+00  0.4209E+01
      7.096  0.2387E+00  0.4250E+01
      7.266  0.1950E+00  0.4283E+01
      7.436  0.2094E+00  0.4318E+01
      7.606  0.2811E+00  0.4366E+01
      7.776  0.3058E+00  0.4418E+01
      7.947  0.2836E+00  0.4466E+01
      8.117  0.2350E+00  0.4506E+01
      8.287  0.2793E+00  0.4554E+01
      8.457  0.3339E+00  0.4611E+01
      8.627  0.4028E+00  0.4679E+01
      8.797  0.4304E+00  0.4752E+01
      8.967  0.4772E+00  0.4834E+01
      9.137  0.5132E+00  0.4921E+01
      9.307  0.5124E+00  0.5008E+01
      9.477  0.5224E+00  0.5097E+01
      9.648  0.5254E+00  0.5186E+01
      9.818  0.5184E+00  0.5274E+01
      9.988  0.5052E+00  0.5360E+01
     10.158  0.5207E+00  0.5449E+01
     10.328  0.4895E+00  0.5532E+01
     10.498  0.3238E+00  0.5587E+01
     10.668  0.7259E-01  0.5600E+01
     10.838  0.1900E-02  0.5600E+01
     11.008  0.7052E-06  0.5600E+01
     11.178  0.1398E-11  0.5600E+01
     11.349  0.0000E+00  0.5600E+01
     11.519  0.0000E+00  0.5600E+01
     11.689  0.0000E+00  0.5600E+01
     11.859  0.0000E+00  0.5600E+01
     12.029  0.0000E+00  0.5600E+01
     12.199  0.0000E+00  0.5600E+01
     12.369  0.0000E+00  0.5600E+01
     12.539  0.0000E+00  0.5600E+01
     12.709  0.0000E+00  0.5600E+01
     12.879  0.0000E+00  0.5600E+01
