 running   28 mpi-ranks, on    1 nodes
 distrk:  each k-point on   28 cores,    1 groups
 distr:  one band on    1 cores,   28 groups
 vasp.6.4.3 19Mar24 (build Sep 18 2024 11:30:23) complex                        
  
 POSCAR found type information on POSCAR ZrTaTiN C CrMo
 POSCAR found :  7 types and      64 ions
 Reading from existing POTCAR
 scaLAPACK will be used
 -----------------------------------------------------------------------------
|                                                                             |
|           W    W    AA    RRRRR   N    N  II  N    N   GGGG   !!!           |
|           W    W   A  A   R    R  NN   N  II  NN   N  G    G  !!!           |
|           W    W  A    A  R    R  N N  N  II  N N  N  G       !!!           |
|           W WW W  AAAAAA  RRRRR   N  N N  II  N  N N  G  GGG   !            |
|           WW  WW  A    A  R   R   N   NN  II  N   NN  G    G                |
|           W    W  A    A  R    R  N    N  II  N    N   GGGG   !!!           |
|                                                                             |
|     For optimal performance we recommend to set                             |
|       NCORE = 2 up to number-of-cores-per-socket                            |
|     NCORE specifies how many cores store one orbital (NPAR=cpu/NCORE).      |
|     This setting can greatly improve the performance of VASP for DFT.       |
|     The default, NCORE=1 might be grossly inefficient on modern             |
|     multi-core architectures or massively parallel machines. Do your        |
|     own testing! More info at https://www.vasp.at/wiki/index.php/NCORE      |
|     Unfortunately you need to use the default for GW and RPA                |
|     calculations (for HF NCORE is supported but not extensively tested      |
|     yet).                                                                   |
|                                                                             |
 -----------------------------------------------------------------------------

 Reading from existing POTCAR
 -----------------------------------------------------------------------------
|                                                                             |
|               ----> ADVICE to this user running VASP <----                  |
|                                                                             |
|     You have a (more or less) 'large supercell' and for larger cells it     |
|     might be more efficient to use real-space projection operators.         |
|     Therefore, try LREAL= Auto in the INCAR file.                           |
|     Mind: If you want to do very accurate calculations, keep the            |
|     reciprocal projection scheme (i.e. LREAL=.FALSE.).                      |
|                                                                             |
 -----------------------------------------------------------------------------

 LDA part: xc-table for (Slater+PW92), standard interpolation
 POSCAR, INCAR and KPOINTS ok, starting setup
 FFT: planning ... GRIDC
 FFT: planning ... GRID_SOFT
 FFT: planning ... GRID
 WAVECAR not read
 entering main loop
       N       E                     dE             d eps       ncg     rms          rms(c)
DAV:   1     0.549144982423E+04    0.54914E+04   -0.17853E+05  8232   0.145E+03
DAV:   2     0.236518034456E+03   -0.52549E+04   -0.50799E+04  7840   0.519E+02
DAV:   3    -0.677083551769E+03   -0.91360E+03   -0.85778E+03 11704   0.182E+02
DAV:   4    -0.776656276807E+03   -0.99573E+02   -0.96350E+02 12572   0.737E+01
DAV:   5    -0.783108824180E+03   -0.64525E+01   -0.63208E+01 11760   0.147E+01    0.750E+01
RMM:   6    -0.809016015521E+03   -0.25907E+02   -0.17486E+03 10682   0.149E+02    0.102E+02
RMM:   7    -0.635895872410E+03    0.17312E+03   -0.34581E+02 10369   0.569E+01    0.470E+01
RMM:   8    -0.643580971748E+03   -0.76851E+01   -0.12521E+02 11201   0.188E+01    0.324E+01
RMM:   9    -0.638520288414E+03    0.50607E+01   -0.33359E+01 11182   0.120E+01    0.248E+01
RMM:  10    -0.634772609572E+03    0.37477E+01   -0.12409E+01 11041   0.712E+00    0.120E+01
RMM:  11    -0.634865515693E+03   -0.92906E-01   -0.60796E+00 10570   0.551E+00    0.175E+01
RMM:  12    -0.633058677484E+03    0.18068E+01   -0.47816E+00 10430   0.525E+00    0.738E+00
RMM:  13    -0.634133164706E+03   -0.10745E+01   -0.36104E+00 11058   0.440E+00    0.151E+01
RMM:  14    -0.633086639708E+03    0.10465E+01   -0.18650E+00 10842   0.359E+00    0.428E+00
RMM:  15    -0.633045216427E+03    0.41423E-01   -0.67464E-01 10434   0.191E+00    0.605E+00
RMM:  16    -0.632838667130E+03    0.20655E+00   -0.37110E-01 11101   0.123E+00    0.294E+00
RMM:  17    -0.632722425020E+03    0.11624E+00   -0.59764E-01 11669   0.115E+00    0.205E+00
RMM:  18    -0.632726464841E+03   -0.40398E-02   -0.31610E-01 11417   0.805E-01    0.929E-01
RMM:  19    -0.632731540479E+03   -0.50756E-02   -0.11989E-01 11437   0.483E-01    0.545E-01
RMM:  20    -0.632726939099E+03    0.46014E-02   -0.34512E-02 10618   0.289E-01    0.356E-01
RMM:  21    -0.632726487548E+03    0.45155E-03   -0.33701E-02 10685   0.287E-01    0.129E-01
RMM:  22    -0.632727766257E+03   -0.12787E-02   -0.14762E-02 11828   0.147E-01    0.715E-02
RMM:  23    -0.632728429415E+03   -0.66316E-03   -0.85079E-03  9879   0.724E-02    0.315E-02
RMM:  24    -0.632728844934E+03   -0.41552E-03   -0.43521E-03  8804   0.538E-02    0.262E-02
RMM:  25    -0.632729102128E+03   -0.25719E-03   -0.27353E-03  7568   0.417E-02    0.208E-02
RMM:  26    -0.632729235269E+03   -0.13314E-03   -0.14878E-03  7115   0.298E-02    0.946E-03
RMM:  27    -0.632729327000E+03   -0.91731E-04   -0.96219E-04  7372   0.301E-02    0.871E-03
RMM:  28    -0.632729385770E+03   -0.58770E-04   -0.59682E-04  6994   0.238E-02    0.901E-03
RMM:  29    -0.632729419026E+03   -0.33256E-04   -0.36818E-04  5625   0.202E-02    0.572E-03
RMM:  30    -0.632729440187E+03   -0.21161E-04   -0.22719E-04  5477   0.936E-03    0.268E-03
RMM:  31    -0.632729454177E+03   -0.13990E-04   -0.14493E-04  5353   0.865E-03    0.141E-03
RMM:  32    -0.632729463272E+03   -0.90943E-05   -0.91093E-05  5198   0.649E-03
   1 F= -.63272946E+03 E0= -.63266238E+03  d E =-.632729E+03
 curvature:   0.00 expect dE= 0.000E+00 dE for cont linesearch  0.000E+00
 trial: gam= 0.00000 g(F)=  0.125E+01 g(S)=  0.246E+01 ort = 0.000E+00 (trialstep = 0.100E+01)
 search vector abs. value=  0.370E+01
 bond charge predicted
       N       E                     dE             d eps       ncg     rms          rms(c)
DAV:   1    -0.648687305861E+03   -0.15958E+02   -0.61157E+02 11228   0.135E+02    0.366E+01
RMM:   2    -0.720498189915E+03   -0.71811E+02   -0.35947E+02  8971   0.915E+01    0.736E+01
RMM:   3    -0.633202242944E+03    0.87296E+02   -0.72853E+01  9393   0.413E+01    0.167E+01
RMM:   4    -0.637359839107E+03   -0.41576E+01   -0.22545E+01 11061   0.133E+01    0.241E+01
RMM:   5    -0.633032961116E+03    0.43269E+01   -0.65827E+00 10311   0.928E+00    0.806E+00
RMM:   6    -0.633338806395E+03   -0.30585E+00   -0.41702E+00 10393   0.525E+00    0.127E+01
RMM:   7    -0.632486911074E+03    0.85190E+00   -0.15717E+00 10253   0.428E+00    0.677E+00
RMM:   8    -0.632661513133E+03   -0.17460E+00   -0.12784E+00 10516   0.329E+00    0.926E+00
RMM:   9    -0.632193982115E+03    0.46753E+00   -0.45575E-01 10022   0.248E+00    0.227E+00
RMM:  10    -0.632223557391E+03   -0.29575E-01   -0.25466E-01 10424   0.118E+00    0.310E+00
RMM:  11    -0.632176382630E+03    0.47175E-01   -0.92531E-02 10606   0.910E-01    0.973E-01
RMM:  12    -0.632177825711E+03   -0.14431E-02   -0.42447E-02 10845   0.428E-01    0.113E+00
RMM:  13    -0.632173793429E+03    0.40323E-02   -0.22330E-02 10783   0.363E-01    0.572E-01
RMM:  14    -0.632173022018E+03    0.77141E-03   -0.12589E-02 10676   0.229E-01    0.169E-01
RMM:  15    -0.632173103422E+03   -0.81404E-04   -0.46950E-03 10863   0.127E-01    0.740E-02
RMM:  16    -0.632173185057E+03   -0.81635E-04   -0.25334E-03 10188   0.752E-02    0.396E-02
RMM:  17    -0.632173276633E+03   -0.91577E-04   -0.12263E-03  9093   0.528E-02    0.240E-02
RMM:  18    -0.632173321512E+03   -0.44879E-04   -0.59463E-04  8026   0.454E-02    0.165E-02
RMM:  19    -0.632173344634E+03   -0.23122E-04   -0.33501E-04  6942   0.242E-02    0.683E-03
RMM:  20    -0.632173358615E+03   -0.13981E-04   -0.16722E-04  6022   0.211E-02    0.649E-03
RMM:  21    -0.632173366119E+03   -0.75045E-05   -0.90045E-05  5620   0.131E-02
   2 F= -.63217337E+03 E0= -.63211976E+03  d E =0.556097E+00
 trial-energy change:    0.556097  1 .order    0.736709   -3.703498    5.176915
 step:   0.4472(harm=  0.4170)  dis= 0.02118  next Energy=  -633.573735 (dE=-0.844E+00)
 bond charge predicted
       N       E                     dE             d eps       ncg     rms          rms(c)
DAV:   1    -0.639790859761E+03   -0.76175E+01   -0.20065E+02 11536   0.730E+01    0.259E+01
RMM:   2    -0.695803575409E+03   -0.56013E+02   -0.55561E+01 10452   0.264E+01    0.584E+01
RMM:   3    -0.634824445837E+03    0.60979E+02   -0.25002E+01  9372   0.230E+01    0.120E+01
RMM:   4    -0.637755744417E+03   -0.29313E+01   -0.90914E+00 10901   0.837E+00    0.219E+01
RMM:   5    -0.634015654831E+03    0.37401E+01   -0.28351E+00 10143   0.593E+00    0.876E+00
RMM:   6    -0.633975014873E+03    0.40640E-01   -0.14016E+00 10706   0.328E+00    0.817E+00
RMM:   7    -0.633680228439E+03    0.29479E+00   -0.67257E-01  9990   0.213E+00    0.418E+00
RMM:   8    -0.633656644398E+03    0.23584E-01   -0.28367E-01 10520   0.159E+00    0.373E+00
RMM:   9    -0.633582815856E+03    0.73829E-01   -0.16003E-01 10312   0.102E+00    0.106E+00
RMM:  10    -0.633608901217E+03   -0.26085E-01   -0.77580E-02 10845   0.766E-01    0.255E+00
RMM:  11    -0.633575604295E+03    0.33297E-01   -0.31662E-02 10290   0.537E-01    0.484E-01
RMM:  12    -0.633581750137E+03   -0.61458E-02   -0.20029E-02 10643   0.321E-01    0.111E+00
RMM:  13    -0.633575801738E+03    0.59484E-02   -0.10063E-02 10330   0.269E-01    0.279E-01
RMM:  14    -0.633575623661E+03    0.17808E-03   -0.50366E-03 10866   0.128E-01    0.104E-01
RMM:  15    -0.633575720611E+03   -0.96950E-04   -0.23875E-03 10551   0.811E-02    0.610E-02
RMM:  16    -0.633575794241E+03   -0.73629E-04   -0.12147E-03  9776   0.547E-02    0.328E-02
RMM:  17    -0.633575834747E+03   -0.40506E-04   -0.53952E-04  8540   0.356E-02    0.167E-02
RMM:  18    -0.633575865816E+03   -0.31069E-04   -0.34898E-04  7438   0.311E-02    0.107E-02
RMM:  19    -0.633575881803E+03   -0.15987E-04   -0.16467E-04  6125   0.170E-02    0.572E-03
RMM:  20    -0.633575890652E+03   -0.88489E-05   -0.82751E-05  5608   0.158E-02
   3 F= -.63357589E+03 E0= -.63351555E+03  d E =-.846427E+00
 curvature:  -0.21 expect dE=-0.158E+00 dE for cont linesearch -0.278E-03
 trial: gam= 0.18612 g(F)=  0.527E+00 g(S)=  0.233E+00 ort = 0.704E-01 (trialstep = 0.889E+00)
 search vector abs. value=  0.914E+00
 bond charge predicted
       N       E                     dE             d eps       ncg     rms          rms(c)
DAV:   1    -0.632230669860E+03    0.13452E+01   -0.11084E+02  8512   0.558E+01    0.523E+00
RMM:   2    -0.636496131796E+03   -0.42655E+01   -0.20541E+01 12182   0.144E+01    0.191E+01
RMM:   3    -0.633969084832E+03    0.25270E+01   -0.36044E+00  9917   0.772E+00    0.435E+00
RMM:   4    -0.634188888545E+03   -0.21980E+00   -0.13454E+00 11128   0.312E+00    0.715E+00
RMM:   5    -0.633918827739E+03    0.27006E+00   -0.32616E-01 10537   0.197E+00    0.147E+00
RMM:   6    -0.633949797197E+03   -0.30969E-01   -0.21157E-01 11278   0.989E-01    0.310E+00
RMM:   7    -0.633908649143E+03    0.41148E-01   -0.96449E-02 10937   0.846E-01    0.122E+00
RMM:   8    -0.633909384668E+03   -0.73553E-03   -0.59578E-02 10795   0.582E-01    0.138E+00
RMM:   9    -0.633903268075E+03    0.61166E-02   -0.30338E-02 10682   0.477E-01    0.807E-01
RMM:  10    -0.633901131555E+03    0.21365E-02   -0.12722E-02 10516   0.261E-01    0.609E-01
RMM:  11    -0.633900145268E+03    0.98629E-03   -0.70336E-03 10250   0.186E-01    0.319E-01
RMM:  12    -0.633899887121E+03    0.25815E-03   -0.43798E-03 10719   0.116E-01    0.877E-02
RMM:  13    -0.633899941293E+03   -0.54172E-04   -0.19805E-03 10317   0.722E-02    0.466E-02
RMM:  14    -0.633899988812E+03   -0.47519E-04   -0.10735E-03  9067   0.469E-02    0.360E-02
RMM:  15    -0.633900062596E+03   -0.73784E-04   -0.59561E-04  8125   0.362E-02    0.729E-02
RMM:  16    -0.633900067566E+03   -0.49701E-05   -0.34518E-04  7679   0.292E-02    0.165E-02
RMM:  17    -0.633900077881E+03   -0.10315E-04   -0.17579E-04  5926   0.179E-02    0.903E-03
RMM:  18    -0.633900084818E+03   -0.69373E-05   -0.10460E-04  5816   0.157E-02    0.391E-03
RMM:  19    -0.633900091640E+03   -0.68216E-05   -0.64091E-05  5515   0.135E-02
   4 F= -.63390009E+03 E0= -.63384271E+03  d E =-.324201E+00
 trial-energy change:   -0.324201  1 .order   -0.321996   -0.687378    0.043387
 step:   0.8375(harm=  0.8366)  dis= 0.03562  next Energy=  -633.901358 (dE=-0.325E+00)
 bond charge predicted
       N       E                     dE             d eps       ncg     rms          rms(c)
DAV:   1    -0.633895226050E+03    0.48588E-02   -0.37750E-01  9940   0.330E+00    0.306E-01
RMM:   2    -0.633911395730E+03   -0.16170E-01   -0.76407E-02 11879   0.897E-01    0.126E+00
RMM:   3    -0.633901937330E+03    0.94584E-02   -0.13071E-02  9552   0.477E-01    0.425E-01
RMM:   4    -0.633901878734E+03    0.58596E-04   -0.53527E-03 10890   0.213E-01    0.306E-01
RMM:   5    -0.633901342450E+03    0.53628E-03   -0.13353E-03 10225   0.109E-01    0.871E-02
RMM:   6    -0.633901478560E+03   -0.13611E-03   -0.65264E-04  9706   0.737E-02    0.195E-01
RMM:   7    -0.633901299478E+03    0.17908E-03   -0.29725E-04  8932   0.592E-02    0.643E-02
RMM:   8    -0.633901354915E+03   -0.55437E-04   -0.22031E-04  8553   0.467E-02    0.122E-01
RMM:   9    -0.633901280948E+03    0.73967E-04   -0.96477E-05  6805   0.368E-02    0.304E-02
RMM:  10    -0.633901291758E+03   -0.10811E-04   -0.43217E-05  5776   0.238E-02    0.549E-02
RMM:  11    -0.633901277845E+03    0.13913E-04   -0.20015E-05  5090   0.205E-02    0.112E-02
RMM:  12    -0.633901279898E+03   -0.20523E-05   -0.14221E-05  5138   0.116E-02
   5 F= -.63390128E+03 E0= -.63384380E+03  d E =-.325389E+00
 curvature:  -0.49 expect dE=-0.687E-01 dE for cont linesearch -0.152E-05
 trial: gam= 0.15184 g(F)=  0.110E+00 g(S)=  0.291E-01 ort = 0.168E-02 (trialstep = 0.879E+00)
 search vector abs. value=  0.160E+00
 bond charge predicted
       N       E                     dE             d eps       ncg     rms          rms(c)
DAV:   1    -0.633641017082E+03    0.26026E+00   -0.19437E+01  8512   0.219E+01    0.182E+00
RMM:   2    -0.634110628040E+03   -0.46961E+00   -0.37116E+00 12350   0.604E+00    0.515E+00
RMM:   3    -0.634001213424E+03    0.10941E+00   -0.57502E-01 10279   0.263E+00    0.219E+00
RMM:   4    -0.634027072986E+03   -0.25860E-01   -0.17063E-01 10841   0.130E+00    0.288E+00
RMM:   5    -0.633982080823E+03    0.44992E-01   -0.55117E-02 10212   0.847E-01    0.788E-01
RMM:   6    -0.633989850664E+03   -0.77698E-02   -0.40473E-02 10835   0.539E-01    0.146E+00
RMM:   7    -0.633978743753E+03    0.11107E-01   -0.18820E-02 10511   0.415E-01    0.509E-01
RMM:   8    -0.633982848349E+03   -0.41046E-02   -0.12801E-02 10633   0.313E-01    0.102E+00
RMM:   9    -0.633977249905E+03    0.55984E-02   -0.55820E-03  9858   0.236E-01    0.154E-01
RMM:  10    -0.633977832780E+03   -0.58287E-03   -0.29897E-03 10201   0.125E-01    0.354E-01
RMM:  11    -0.633977281960E+03    0.55082E-03   -0.12922E-03  9426   0.907E-02    0.772E-02
RMM:  12    -0.633977417804E+03   -0.13584E-03   -0.79313E-04  8909   0.559E-02    0.150E-01
RMM:  13    -0.633977324773E+03    0.93031E-04   -0.35908E-04  8254   0.409E-02    0.313E-02
RMM:  14    -0.633977331247E+03   -0.64736E-05   -0.19203E-04  6905   0.230E-02    0.140E-02
RMM:  15    -0.633977337946E+03   -0.66990E-05   -0.95390E-05  5851   0.208E-02
   6 F= -.63397734E+03 E0= -.63392060E+03  d E =-.760580E-01
 trial-energy change:   -0.076058  1 .order   -0.075937   -0.122291   -0.029583
 step:   1.1596(harm=  1.1596)  dis= 0.02490  next Energy=  -633.981937 (dE=-0.807E-01)
 bond charge predicted
       N       E                     dE             d eps       ncg     rms          rms(c)
DAV:   1    -0.633948008938E+03    0.29322E-01   -0.19769E+00  9044   0.698E+00    0.577E-01
RMM:   2    -0.633995523889E+03   -0.47515E-01   -0.37780E-01 12373   0.191E+00    0.163E+00
RMM:   3    -0.633984911093E+03    0.10613E-01   -0.58431E-02 10294   0.832E-01    0.723E-01
RMM:   4    -0.633987284235E+03   -0.23731E-02   -0.17459E-02 10812   0.412E-01    0.896E-01
RMM:   5    -0.633982876624E+03    0.44076E-02   -0.56736E-03 10078   0.268E-01    0.259E-01
RMM:   6    -0.633983619051E+03   -0.74243E-03   -0.40913E-03 10440   0.177E-01    0.456E-01
RMM:   7    -0.633982538342E+03    0.10807E-02   -0.20196E-03 10187   0.135E-01    0.164E-01
RMM:   8    -0.633982949345E+03   -0.41100E-03   -0.13084E-03  9898   0.106E-01    0.324E-01
RMM:   9    -0.633982391094E+03    0.55825E-03   -0.60719E-04  9008   0.819E-02    0.551E-02
RMM:  10    -0.633982462162E+03   -0.71068E-04   -0.33132E-04  8311   0.457E-02    0.124E-01
RMM:  11    -0.633982392881E+03    0.69281E-04   -0.13640E-04  6511   0.326E-02    0.237E-02
RMM:  12    -0.633982406663E+03   -0.13781E-04   -0.85521E-05  6108   0.222E-02    0.470E-02
RMM:  13    -0.633982397404E+03    0.92586E-05   -0.41352E-05  5512   0.189E-02
   7 F= -.63398240E+03 E0= -.63392581E+03  d E =-.811175E-01
 curvature:  -0.67 expect dE=-0.479E-01 dE for cont linesearch -0.261E-05
 trial: gam= 0.51490 g(F)=  0.364E-01 g(S)=  0.351E-01 ort = 0.792E-03 (trialstep = 0.935E+00)
 search vector abs. value=  0.115E+00
 bond charge predicted
       N       E                     dE             d eps       ncg     rms          rms(c)
DAV:   1    -0.633798477090E+03    0.18393E+00   -0.17384E+01 10752   0.220E+01    0.293E+00
RMM:   2    -0.634861360357E+03   -0.10629E+01   -0.37040E+00 10001   0.768E+00    0.107E+01
RMM:   3    -0.634021052544E+03    0.84031E+00   -0.10079E+00  9452   0.431E+00    0.234E+00
RMM:   4    -0.634078909512E+03   -0.57857E-01   -0.36393E-01 12025   0.170E+00    0.349E+00
RMM:   5    -0.634015403303E+03    0.63506E-01   -0.88902E-02 10698   0.986E-01    0.719E-01
RMM:   6    -0.634024076753E+03   -0.86735E-02   -0.44698E-02 10878   0.537E-01    0.150E+00
RMM:   7    -0.634012431990E+03    0.11645E-01   -0.14209E-02 10006   0.412E-01    0.469E-01
RMM:   8    -0.634015522297E+03   -0.30903E-02   -0.12392E-02 10779   0.289E-01    0.941E-01
RMM:   9    -0.634011182124E+03    0.43402E-02   -0.51849E-03  9973   0.228E-01    0.247E-01
RMM:  10    -0.634012079167E+03   -0.89704E-03   -0.31587E-03 10405   0.146E-01    0.481E-01
RMM:  11    -0.634010983456E+03    0.10957E-02   -0.11721E-03  9226   0.109E-01    0.781E-02
RMM:  12    -0.634010972314E+03    0.11142E-04   -0.60662E-04  9324   0.469E-02    0.370E-02
RMM:  13    -0.634011006886E+03   -0.34572E-04   -0.39165E-04  8765   0.374E-02    0.318E-02
RMM:  14    -0.634011027567E+03   -0.20681E-04   -0.18509E-04  7464   0.311E-02    0.466E-02
RMM:  15    -0.634011020770E+03    0.67968E-05   -0.84929E-05  5908   0.203E-02
   8 F= -.63401102E+03 E0= -.63395565E+03  d E =-.286234E-01
 trial-energy change:   -0.028623  1 .order   -0.027688   -0.067303    0.011927
 step:   0.8024(harm=  0.7944)  dis= 0.01344  next Energy=  -634.011864 (dE=-0.295E-01)
 bond charge predicted
       N       E                     dE             d eps       ncg     rms          rms(c)
DAV:   1    -0.634007600478E+03    0.34271E-02   -0.35012E-01 11620   0.312E+00    0.424E-01
RMM:   2    -0.634030674907E+03   -0.23074E-01   -0.74340E-02 10232   0.106E+00    0.162E+00
RMM:   3    -0.634012201389E+03    0.18474E-01   -0.20556E-02  9323   0.617E-01    0.365E-01
RMM:   4    -0.634013158539E+03   -0.95715E-03   -0.72015E-03 11607   0.246E-01    0.494E-01
RMM:   5    -0.634011919901E+03    0.12386E-02   -0.17523E-03 10098   0.143E-01    0.121E-01
RMM:   6    -0.634012101323E+03   -0.18142E-03   -0.88688E-04  9748   0.886E-02    0.225E-01
RMM:   7    -0.634011833327E+03    0.26800E-03   -0.27202E-04  8607   0.648E-02    0.647E-02
RMM:   8    -0.634011900301E+03   -0.66975E-04   -0.24300E-04  8327   0.488E-02    0.135E-01
RMM:   9    -0.634011802206E+03    0.98096E-04   -0.99283E-05  7115   0.362E-02    0.306E-02
RMM:  10    -0.634011824746E+03   -0.22541E-04   -0.60888E-05  6197   0.265E-02    0.767E-02
RMM:  11    -0.634011795676E+03    0.29070E-04   -0.22160E-05  5029   0.234E-02    0.107E-02
RMM:  12    -0.634011794695E+03    0.98027E-06   -0.12385E-05  4949   0.118E-02
   9 F= -.63401179E+03 E0= -.63395626E+03  d E =-.293973E-01
 curvature:  -0.63 expect dE=-0.252E-01 dE for cont linesearch -0.153E-05
 trial: gam= 0.55066 g(F)=  0.158E-01 g(S)=  0.240E-01 ort = 0.527E-03 (trialstep = 0.909E+00)
 search vector abs. value=  0.752E-01
 bond charge predicted
       N       E                     dE             d eps       ncg     rms          rms(c)
DAV:   1    -0.633915776707E+03    0.96019E-01   -0.10653E+01 10836   0.179E+01    0.244E+00
RMM:   2    -0.634731283504E+03   -0.81551E+00   -0.22129E+00 10264   0.581E+00    0.101E+01
RMM:   3    -0.634054233535E+03    0.67705E+00   -0.61794E-01  9425   0.353E+00    0.260E+00
RMM:   4    -0.634060254565E+03   -0.60210E-02   -0.21717E-01 11655   0.139E+00    0.243E+00
RMM:   5    -0.634029334766E+03    0.30920E-01   -0.55528E-02 10748   0.743E-01    0.752E-01
RMM:   6    -0.634036049581E+03   -0.67148E-02   -0.28843E-02 10945   0.461E-01    0.139E+00
RMM:   7    -0.634026204447E+03    0.98451E-02   -0.11538E-02 10110   0.344E-01    0.352E-01
RMM:   8    -0.634028161820E+03   -0.19574E-02   -0.75689E-03 10525   0.242E-01    0.738E-01
RMM:   9    -0.634025465047E+03    0.26968E-02   -0.31387E-03  9431   0.196E-01    0.218E-01
RMM:  10    -0.634026155734E+03   -0.69069E-03   -0.23124E-03 10072   0.131E-01    0.411E-01
RMM:  11    -0.634025276228E+03    0.87951E-03   -0.87420E-04  9123   0.964E-02    0.526E-02
RMM:  12    -0.634025271731E+03    0.44975E-05   -0.40771E-04  8922   0.382E-02    0.328E-02
RMM:  13    -0.634025319917E+03   -0.48186E-04   -0.22468E-04  7550   0.371E-02    0.858E-02
RMM:  14    -0.634025285461E+03    0.34456E-04   -0.11646E-04  6394   0.277E-02    0.160E-02
RMM:  15    -0.634025288512E+03   -0.30510E-05   -0.64820E-05  6049   0.167E-02
  10 F= -.63402529E+03 E0= -.63396965E+03  d E =-.134938E-01
 trial-energy change:   -0.013494  1 .order   -0.013381   -0.036414    0.009652
 step:   0.7204(harm=  0.7182)  dis= 0.00756  next Energy=  -634.026287 (dE=-0.145E-01)
 bond charge predicted
       N       E                     dE             d eps       ncg     rms          rms(c)
DAV:   1    -0.634021031220E+03    0.42542E-02   -0.45081E-01 11284   0.372E+00    0.500E-01
RMM:   2    -0.634054980941E+03   -0.33950E-01   -0.99551E-02 10121   0.127E+00    0.203E+00
RMM:   3    -0.634027595700E+03    0.27385E-01   -0.27378E-02  9395   0.735E-01    0.591E-01
RMM:   4    -0.634027479987E+03    0.11571E-03   -0.95701E-03 11613   0.294E-01    0.456E-01
RMM:   5    -0.634026373091E+03    0.11069E-02   -0.24717E-03 10332   0.152E-01    0.138E-01
RMM:   6    -0.634026683620E+03   -0.31053E-03   -0.11672E-03  9887   0.104E-01    0.290E-01
RMM:   7    -0.634026250083E+03    0.43354E-03   -0.46527E-04  8983   0.806E-02    0.726E-02
RMM:   8    -0.634026330056E+03   -0.79973E-04   -0.33341E-04  9114   0.556E-02    0.148E-01
RMM:   9    -0.634026224887E+03    0.10517E-03   -0.12473E-04  7238   0.447E-02    0.466E-02
RMM:  10    -0.634026254174E+03   -0.29287E-04   -0.86906E-05  6695   0.305E-02    0.840E-02
RMM:  11    -0.634026218454E+03    0.35720E-04   -0.29146E-05  5233   0.249E-02    0.108E-02
RMM:  12    -0.634026219500E+03   -0.10458E-05   -0.16858E-05  5051   0.126E-02
  11 F= -.63402622E+03 E0= -.63397061E+03  d E =-.144248E-01
 curvature:  -0.67 expect dE=-0.936E-02 dE for cont linesearch -0.867E-06
 trial: gam= 0.33767 g(F)=  0.969E-02 g(S)=  0.420E-02 ort = 0.311E-03 (trialstep = 0.871E+00)
 search vector abs. value=  0.227E-01
 bond charge predicted
       N       E                     dE             d eps       ncg     rms          rms(c)
DAV:   1    -0.633987419641E+03    0.38799E-01   -0.29268E+00  8680   0.951E+00    0.428E-01
RMM:   2    -0.634032743786E+03   -0.45324E-01   -0.43810E-01 11935   0.218E+00    0.104E+00
RMM:   3    -0.634035766905E+03   -0.30231E-02   -0.68004E-02 11009   0.768E-01    0.597E-01
RMM:   4    -0.634035361765E+03    0.40514E-03   -0.13546E-02 11237   0.342E-01    0.363E-01
RMM:   5    -0.634035056398E+03    0.30537E-03   -0.42204E-03 10409   0.209E-01    0.250E-01
RMM:   6    -0.634035069995E+03   -0.13596E-04   -0.21977E-03 10513   0.140E-01    0.259E-01
RMM:   7    -0.634034873628E+03    0.19637E-03   -0.11992E-03  9744   0.117E-01    0.191E-01
RMM:   8    -0.634034863204E+03    0.10424E-04   -0.89164E-04 10224   0.888E-02    0.201E-01
RMM:   9    -0.634034621854E+03    0.24135E-03   -0.33404E-04  8776   0.627E-02    0.354E-02
RMM:  10    -0.634034659047E+03   -0.37194E-04   -0.16846E-04  7414   0.354E-02    0.865E-02
RMM:  11    -0.634034628057E+03    0.30990E-04   -0.73026E-05  5817   0.264E-02    0.222E-02
RMM:  12    -0.634034633644E+03   -0.55865E-05   -0.45204E-05  5709   0.189E-02
  12 F= -.63403463E+03 E0= -.63397892E+03  d E =-.841414E-02
 trial-energy change:   -0.008414  1 .order   -0.008316   -0.012190   -0.004443
 step:   1.3190(harm=  1.3704)  dis= 0.00813  next Energy=  -634.035790 (dE=-0.957E-02)
 bond charge predicted
       N       E                     dE             d eps       ncg     rms          rms(c)
DAV:   1    -0.634023478085E+03    0.11150E-01   -0.77550E-01  9408   0.490E+00    0.219E-01
RMM:   2    -0.634035455510E+03   -0.11977E-01   -0.11662E-01 11970   0.112E+00    0.516E-01
RMM:   3    -0.634036409496E+03   -0.95399E-03   -0.18218E-02 10985   0.393E-01    0.316E-01
RMM:   4    -0.634036282385E+03    0.12711E-03   -0.36102E-03 11057   0.181E-01    0.191E-01
RMM:   5    -0.634036209467E+03    0.72917E-04   -0.12040E-03  9912   0.112E-01    0.130E-01
RMM:   6    -0.634036196944E+03    0.12523E-04   -0.60540E-04  9979   0.769E-02    0.123E-01
RMM:   7    -0.634036183100E+03    0.13845E-04   -0.33612E-04  8724   0.624E-02    0.114E-01
RMM:   8    -0.634036155709E+03    0.27391E-04   -0.25387E-04  9150   0.502E-02    0.958E-02
RMM:   9    -0.634036100024E+03    0.55684E-04   -0.87191E-05  6264   0.350E-02    0.210E-02
RMM:  10    -0.634036112154E+03   -0.12130E-04   -0.48164E-05  5648   0.230E-02    0.499E-02
RMM:  11    -0.634036102008E+03    0.10146E-04   -0.23551E-05  5215   0.199E-02    0.106E-02
RMM:  12    -0.634036103578E+03   -0.15698E-05   -0.15723E-05  5166   0.123E-02
  13 F= -.63403610E+03 E0= -.63398033E+03  d E =-.988408E-02
 curvature:  -1.10 expect dE=-0.616E-02 dE for cont linesearch -0.405E-04
 trial: gam= 0.33786 g(F)=  0.477E-02 g(S)=  0.837E-03 ort = 0.915E-03 (trialstep = 0.961E+00)
 search vector abs. value=  0.882E-02
 bond charge predicted
       N       E                     dE             d eps       ncg     rms          rms(c)
DAV:   1    -0.634015517469E+03    0.20585E-01   -0.14138E+00  9408   0.704E+00    0.611E-01
RMM:   2    -0.634078429614E+03   -0.62912E-01   -0.29756E-01 11345   0.182E+00    0.240E+00
RMM:   3    -0.634041285472E+03    0.37144E-01   -0.56805E-02  9596   0.990E-01    0.734E-01
RMM:   4    -0.634042187347E+03   -0.90187E-03   -0.20549E-02 11244   0.414E-01    0.656E-01
RMM:   5    -0.634039979708E+03    0.22076E-02   -0.47099E-03 10537   0.215E-01    0.197E-01
RMM:   6    -0.634040204501E+03   -0.22479E-03   -0.21199E-03 10307   0.124E-01    0.274E-01
RMM:   7    -0.634039817844E+03    0.38666E-03   -0.93674E-04 10038   0.932E-02    0.109E-01
RMM:   8    -0.634039986915E+03   -0.16907E-03   -0.59147E-04  9409   0.743E-02    0.206E-01
RMM:   9    -0.634039774262E+03    0.21265E-03   -0.32697E-04  8960   0.608E-02    0.490E-02
RMM:  10    -0.634039823192E+03   -0.48929E-04   -0.17162E-04  7674   0.381E-02    0.108E-01
RMM:  11    -0.634039770059E+03    0.53132E-04   -0.68305E-05  5870   0.282E-02    0.194E-02
RMM:  12    -0.634039779218E+03   -0.91585E-05   -0.40146E-05  5577   0.188E-02
  14 F= -.63403978E+03 E0= -.63398399E+03  d E =-.367564E-02
 trial-energy change:   -0.003676  1 .order   -0.003608   -0.005686   -0.001531
 step:   1.2742(harm=  1.3145)  dis= 0.00558  next Energy=  -634.040031 (dE=-0.393E-02)
 bond charge predicted
       N       E                     dE             d eps       ncg     rms          rms(c)
DAV:   1    -0.634037557489E+03    0.22126E-02   -0.15189E-01  9996   0.230E+00    0.199E-01
RMM:   2    -0.634044255252E+03   -0.66978E-02   -0.30911E-02 11319   0.583E-01    0.794E-01
RMM:   3    -0.634040232593E+03    0.40227E-02   -0.58083E-03  9379   0.320E-01    0.245E-01
RMM:   4    -0.634040312526E+03   -0.79933E-04   -0.22347E-03 10665   0.144E-01    0.212E-01
RMM:   5    -0.634040092960E+03    0.21957E-03   -0.53488E-04  9679   0.742E-02    0.713E-02
RMM:   6    -0.634040105936E+03   -0.12976E-04   -0.22392E-04  7815   0.466E-02    0.810E-02
RMM:   7    -0.634040076885E+03    0.29051E-04   -0.10863E-04  7213   0.340E-02    0.421E-02
RMM:   8    -0.634040088853E+03   -0.11968E-04   -0.66470E-05  6070   0.288E-02    0.610E-02
RMM:   9    -0.634040072282E+03    0.16572E-04   -0.39368E-05  5722   0.251E-02    0.170E-02
RMM:  10    -0.634040079286E+03   -0.70046E-05   -0.23346E-05  5116   0.189E-02
  15 F= -.63404008E+03 E0= -.63398428E+03  d E =-.397571E-02
 curvature:  -0.97 expect dE=-0.513E-02 dE for cont linesearch -0.581E-05
 trial: gam= 0.99119 g(F)=  0.207E-02 g(S)=  0.324E-02 ort = 0.230E-03 (trialstep = 0.625E+00)
 search vector abs. value=  0.144E-01
 bond charge predicted
       N       E                     dE             d eps       ncg     rms          rms(c)
DAV:   1    -0.634028041093E+03    0.12031E-01   -0.10307E+00 10052   0.604E+00    0.596E-01
RMM:   2    -0.634077033523E+03   -0.48992E-01   -0.20551E-01 10751   0.157E+00    0.224E+00
RMM:   3    -0.634043252664E+03    0.33781E-01   -0.44769E-02  9506   0.907E-01    0.617E-01
RMM:   4    -0.634045355297E+03   -0.21026E-02   -0.17689E-02 11268   0.387E-01    0.758E-01
RMM:   5    -0.634042375881E+03    0.29794E-02   -0.38828E-03 10326   0.215E-01    0.168E-01
RMM:   6    -0.634042737305E+03   -0.36142E-03   -0.21763E-03 10278   0.129E-01    0.297E-01
RMM:   7    -0.634042252697E+03    0.48461E-03   -0.80755E-04  9593   0.908E-02    0.923E-02
RMM:   8    -0.634042418230E+03   -0.16553E-03   -0.54152E-04  9519   0.671E-02    0.210E-01
RMM:   9    -0.634042211676E+03    0.20655E-03   -0.25220E-04  8222   0.532E-02    0.478E-02
RMM:  10    -0.634042239348E+03   -0.27672E-04   -0.13300E-04  7372   0.334E-02    0.893E-02
RMM:  11    -0.634042199779E+03    0.39569E-04   -0.57653E-05  5734   0.266E-02    0.209E-02
RMM:  12    -0.634042206261E+03   -0.64824E-05   -0.35591E-05  5496   0.184E-02
  16 F= -.63404221E+03 E0= -.63398615E+03  d E =-.212698E-02
 trial-energy change:   -0.002127  1 .order   -0.002083   -0.003464   -0.000703
 step:   0.7677(harm=  0.7844)  dis= 0.00457  next Energy=  -634.042287 (dE=-0.221E-02)
 bond charge predicted
       N       E                     dE             d eps       ncg     rms          rms(c)
DAV:   1    -0.634041475702E+03    0.72408E-03   -0.52575E-02  9996   0.138E+00    0.138E-01
RMM:   2    -0.634044188357E+03   -0.27127E-02   -0.11603E-02 10851   0.372E-01    0.520E-01
RMM:   3    -0.634042352915E+03    0.18354E-02   -0.24230E-03  9033   0.214E-01    0.146E-01
RMM:   4    -0.634042457097E+03   -0.10418E-03   -0.10001E-03 10269   0.990E-02    0.168E-01
RMM:   5    -0.634042311262E+03    0.14583E-03   -0.22541E-04  8542   0.538E-02    0.398E-02
RMM:   6    -0.634042328828E+03   -0.17566E-04   -0.11074E-04  6331   0.345E-02    0.681E-02
RMM:   7    -0.634042305021E+03    0.23807E-04   -0.47618E-05  5510   0.281E-02    0.243E-02
RMM:   8    -0.634042312024E+03   -0.70031E-05   -0.30684E-05  5337   0.209E-02
  17 F= -.63404231E+03 E0= -.63398620E+03  d E =-.223274E-02
 curvature:  -1.01 expect dE=-0.278E-02 dE for cont linesearch -0.241E-05
 trial: gam= 0.46880 g(F)=  0.214E-02 g(S)=  0.604E-03 ort = 0.185E-03 (trialstep = 0.654E+00)
 search vector abs. value=  0.609E-02
 bond charge predicted
       N       E                     dE             d eps       ncg     rms          rms(c)
DAV:   1    -0.634036582974E+03    0.57220E-02   -0.45198E-01  8708   0.365E+00    0.172E-01
RMM:   2    -0.634045151725E+03   -0.85688E-02   -0.67853E-02 12109   0.783E-01    0.628E-01
RMM:   3    -0.634043850371E+03    0.13014E-02   -0.96895E-03 10552   0.317E-01    0.218E-01
RMM:   4    -0.634044117016E+03   -0.26664E-03   -0.26814E-03 10570   0.160E-01    0.238E-01
RMM:   5    -0.634043808608E+03    0.30841E-03   -0.67735E-04  9224   0.947E-02    0.946E-02
RMM:   6    -0.634043816976E+03   -0.83680E-05   -0.38869E-04  8692   0.548E-02    0.819E-02
RMM:   7    -0.634043787952E+03    0.29024E-04   -0.20330E-04  8926   0.385E-02    0.475E-02
RMM:   8    -0.634043812981E+03   -0.25029E-04   -0.13082E-04  7503   0.366E-02    0.830E-02
RMM:   9    -0.634043777163E+03    0.35818E-04   -0.61134E-05  6099   0.285E-02    0.201E-02
RMM:  10    -0.634043784272E+03   -0.71094E-05   -0.32394E-05  5428   0.206E-02
  18 F= -.63404378E+03 E0= -.63398756E+03  d E =-.147225E-02
 trial-energy change:   -0.001472  1 .order   -0.001427   -0.001853   -0.001000
 step:   1.1439(harm=  1.4196)  dis= 0.00429  next Energy=  -634.044178 (dE=-0.187E-02)
 bond charge predicted
       N       E                     dE             d eps       ncg     rms          rms(c)
DAV:   1    -0.634040137284E+03    0.36399E-02   -0.25328E-01  8568   0.274E+00    0.132E-01
RMM:   2    -0.634045108462E+03   -0.49712E-02   -0.38975E-02 12177   0.592E-01    0.485E-01
RMM:   3    -0.634044299500E+03    0.80896E-03   -0.55201E-03 10418   0.242E-01    0.167E-01
RMM:   4    -0.634044453709E+03   -0.15421E-03   -0.15600E-03 10283   0.125E-01    0.181E-01
RMM:   5    -0.634044280322E+03    0.17339E-03   -0.40682E-04  8635   0.735E-02    0.745E-02
RMM:   6    -0.634044281619E+03   -0.12971E-05   -0.22389E-04  7839   0.426E-02    0.583E-02
RMM:   7    -0.634044267728E+03    0.13891E-04   -0.12311E-04  7957   0.313E-02    0.341E-02
RMM:   8    -0.634044280682E+03   -0.12954E-04   -0.76064E-05  6526   0.291E-02    0.559E-02
RMM:   9    -0.634044264136E+03    0.16546E-04   -0.35767E-05  5369   0.228E-02    0.990E-03
RMM:  10    -0.634044266340E+03   -0.22043E-05   -0.19210E-05  5258   0.163E-02
  19 F= -.63404427E+03 E0= -.63398795E+03  d E =-.195432E-02
 curvature:  -1.33 expect dE=-0.173E-02 dE for cont linesearch -0.408E-04
 ZBRENT: extrapolating
 opt :   1.3372  next Energy=  -634.044308 (dE=-0.200E-02)
 bond charge predicted
       N       E                     dE             d eps       ncg     rms          rms(c)
DAV:   1    -0.634043656542E+03    0.60759E-03   -0.39351E-02  9128   0.108E+00    0.530E-02
RMM:   2    -0.634044451027E+03   -0.79448E-03   -0.61539E-03 12153   0.236E-01    0.198E-01
RMM:   3    -0.634044311037E+03    0.13999E-03   -0.85997E-04  9683   0.986E-02    0.656E-02
RMM:   4    -0.634044336732E+03   -0.25694E-04   -0.25184E-04  8161   0.587E-02    0.720E-02
RMM:   5    -0.634044310715E+03    0.26016E-04   -0.65423E-05  5970   0.329E-02    0.297E-02
RMM:   6    -0.634044311214E+03   -0.49816E-06   -0.35096E-05  5542   0.220E-02
  20 F= -.63404431E+03 E0= -.63398797E+03  d E =-.199919E-02
 curvature:  -1.36 expect dE=-0.226E-02 dE for cont linesearch -0.788E-05
 trial: gam= 0.67956 g(F)=  0.144E-02 g(S)=  0.218E-03 ort =-0.188E-03 (trialstep = 0.790E+00)
 search vector abs. value=  0.422E-02
 bond charge predicted
       N       E                     dE             d eps       ncg     rms          rms(c)
DAV:   1    -0.634036188105E+03    0.81226E-02   -0.47070E-01  8400   0.388E+00    0.293E-01
RMM:   2    -0.634053616283E+03   -0.17428E-01   -0.96731E-02 12051   0.971E-01    0.119E+00
RMM:   3    -0.634045722079E+03    0.78942E-02   -0.17601E-02  9749   0.481E-01    0.382E-01
RMM:   4    -0.634045804093E+03   -0.82015E-04   -0.49129E-03 10665   0.210E-01    0.313E-01
RMM:   5    -0.634045380953E+03    0.42314E-03   -0.14038E-03  9947   0.110E-01    0.136E-01
RMM:   6    -0.634045373309E+03    0.76432E-05   -0.55998E-04  9377   0.713E-02    0.117E-01
RMM:   7    -0.634045314556E+03    0.58754E-04   -0.25020E-04  8841   0.466E-02    0.589E-02
RMM:   8    -0.634045361086E+03   -0.46530E-04   -0.16727E-04  7515   0.429E-02    0.107E-01
RMM:   9    -0.634045301510E+03    0.59576E-04   -0.10238E-04  7211   0.350E-02    0.188E-02
RMM:  10    -0.634045307349E+03   -0.58389E-05   -0.45378E-05  5835   0.196E-02
  21 F= -.63404531E+03 E0= -.63398883E+03  d E =-.996135E-03
 trial-energy change:   -0.000996  1 .order   -0.000912   -0.001213   -0.000611
 step:   1.1511(harm=  1.5932)  dis= 0.00384  next Energy=  -634.045455 (dE=-0.114E-02)
 bond charge predicted
       N       E                     dE             d eps       ncg     rms          rms(c)
DAV:   1    -0.634043637242E+03    0.16643E-02   -0.98301E-02  8680   0.176E+00    0.133E-01
RMM:   2    -0.634047160905E+03   -0.35237E-02   -0.19881E-02 12045   0.439E-01    0.526E-01
RMM:   3    -0.634045581306E+03    0.15796E-02   -0.35370E-03  9479   0.218E-01    0.168E-01
RMM:   4    -0.634045627398E+03   -0.46092E-04   -0.10832E-03  9986   0.102E-01    0.149E-01
RMM:   5    -0.634045533137E+03    0.94261E-04   -0.31426E-04  8551   0.552E-02    0.613E-02
RMM:   6    -0.634045533824E+03   -0.68701E-06   -0.12297E-04  6577   0.350E-02    0.541E-02
RMM:   7    -0.634045522295E+03    0.11529E-04   -0.54125E-05  5809   0.266E-02    0.242E-02
RMM:   8    -0.634045534806E+03   -0.12510E-04   -0.39122E-05  5541   0.236E-02    0.504E-02
RMM:   9    -0.634045523156E+03    0.11649E-04   -0.25276E-05  5160   0.219E-02    0.896E-03
RMM:  10    -0.634045524852E+03   -0.16955E-05   -0.15867E-05  5074   0.135E-02
  22 F= -.63404552E+03 E0= -.63398898E+03  d E =-.121364E-02
 curvature:  -1.53 expect dE=-0.272E-02 dE for cont linesearch -0.506E-04
 ZBRENT: increasing intervall
 opt :   1.8725  next Energy=  -634.045507 (dE=-0.120E-02)
 bond charge predicted
       N       E                     dE             d eps       ncg     rms          rms(c)
DAV:   1    -0.634038035615E+03    0.74875E-02   -0.39311E-01  8456   0.353E+00    0.265E-01
RMM:   2    -0.634052053322E+03   -0.14018E-01   -0.79191E-02 12068   0.876E-01    0.105E+00
RMM:   3    -0.634045815605E+03    0.62377E-02   -0.14124E-02  9738   0.431E-01    0.339E-01
RMM:   4    -0.634045952725E+03   -0.13712E-03   -0.41261E-03 10617   0.193E-01    0.294E-01
RMM:   5    -0.634045575293E+03    0.37743E-03   -0.11678E-03  9796   0.103E-01    0.123E-01
RMM:   6    -0.634045570422E+03    0.48703E-05   -0.47449E-04  9029   0.662E-02    0.105E-01
RMM:   7    -0.634045521783E+03    0.48639E-04   -0.20359E-04  8398   0.415E-02    0.493E-02
RMM:   8    -0.634045563076E+03   -0.41292E-04   -0.14395E-04  7350   0.400E-02    0.969E-02
RMM:   9    -0.634045514124E+03    0.48952E-04   -0.82466E-05  6772   0.324E-02    0.174E-02
RMM:  10    -0.634045519215E+03   -0.50912E-05   -0.40264E-05  5778   0.191E-02
  23 F= -.63404552E+03 E0= -.63398886E+03  d E =-.120800E-02
 curvature:   0.55 expect dE= 0.239E-02 dE for cont linesearch  0.242E-04
 ZBRENT: bracketing found
 ZBRENT: interpolating
 opt :   1.4855  next Energy=  -634.045587 (dE=-0.128E-02)
 bond charge predicted
       N       E                     dE             d eps       ncg     rms          rms(c)
DAV:   1    -0.634043496423E+03    0.20177E-02   -0.11340E-01  8568   0.190E+00    0.141E-01
RMM:   2    -0.634047439592E+03   -0.39432E-02   -0.22463E-02 12088   0.466E-01    0.559E-01
RMM:   3    -0.634045714197E+03    0.17254E-02   -0.39393E-03  9479   0.228E-01    0.182E-01
RMM:   4    -0.634045740982E+03   -0.26784E-04   -0.11049E-03  9973   0.108E-01    0.156E-01
RMM:   5    -0.634045629325E+03    0.11166E-03   -0.31567E-04  8650   0.576E-02    0.666E-02
RMM:   6    -0.634045622923E+03    0.64022E-05   -0.10321E-04  6401   0.369E-02    0.562E-02
RMM:   7    -0.634045607092E+03    0.15831E-04   -0.49814E-05  5718   0.285E-02    0.309E-02
RMM:   8    -0.634045613562E+03   -0.64696E-05   -0.35839E-05  5490   0.258E-02
  24 F= -.63404561E+03 E0= -.63398901E+03  d E =-.130235E-02
 curvature:  -1.41 expect dE=-0.480E-02 dE for cont linesearch -0.325E-06
 trial: gam= 1.97369 g(F)=  0.108E-02 g(S)=  0.233E-02 ort = 0.312E-04 (trialstep = 0.196E+00)
 search vector abs. value=  0.200E-01
 bond charge predicted
       N       E                     dE             d eps       ncg     rms          rms(c)
DAV:   1    -0.634042590264E+03    0.30168E-02   -0.14749E-01  8120   0.235E+00    0.154E-01
RMM:   2    -0.634047384416E+03   -0.47942E-02   -0.34603E-02 12294   0.556E-01    0.502E-01
RMM:   3    -0.634046181493E+03    0.12029E-02   -0.61993E-03  9680   0.260E-01    0.175E-01
RMM:   4    -0.634046390195E+03   -0.20870E-03   -0.14466E-03 10193   0.118E-01    0.226E-01
RMM:   5    -0.634046134781E+03    0.25541E-03   -0.36704E-04  8575   0.676E-02    0.552E-02
RMM:   6    -0.634046145867E+03   -0.11086E-04   -0.16100E-04  7041   0.429E-02    0.660E-02
RMM:   7    -0.634046121535E+03    0.24333E-04   -0.64995E-05  6081   0.292E-02    0.296E-02
RMM:   8    -0.634046139818E+03   -0.18283E-04   -0.52362E-05  5840   0.273E-02    0.726E-02
RMM:   9    -0.634046115126E+03    0.24692E-04   -0.28360E-05  5232   0.246E-02    0.164E-02
RMM:  10    -0.634046117784E+03   -0.26589E-05   -0.16132E-05  4860   0.169E-02
  25 F= -.63404612E+03 E0= -.63398941E+03  d E =-.504223E-03
 trial-energy change:   -0.000504  1 .order   -0.000557   -0.000682   -0.000432
 step:   0.5367(harm=  0.5367)  dis= 0.00417  next Energy=  -634.046545 (dE=-0.931E-03)
 bond charge predicted
       N       E                     dE             d eps       ncg     rms          rms(c)
DAV:   1    -0.634035871738E+03    0.10243E-01   -0.44145E-01  7952   0.406E+00    0.265E-01
RMM:   2    -0.634050207685E+03   -0.14336E-01   -0.10434E-01 12316   0.966E-01    0.862E-01
RMM:   3    -0.634046745511E+03    0.34622E-02   -0.18886E-02  9895   0.448E-01    0.309E-01
RMM:   4    -0.634047384216E+03   -0.63870E-03   -0.44915E-03 10721   0.197E-01    0.397E-01
RMM:   5    -0.634046606189E+03    0.77803E-03   -0.11810E-03  9643   0.114E-01    0.927E-02
RMM:   6    -0.634046658719E+03   -0.52530E-04   -0.56804E-04  9089   0.695E-02    0.122E-01
RMM:   7    -0.634046587852E+03    0.70867E-04   -0.24595E-04  8539   0.446E-02    0.583E-02
RMM:   8    -0.634046645418E+03   -0.57567E-04   -0.17104E-04  7506   0.411E-02    0.125E-01
RMM:   9    -0.634046572132E+03    0.73286E-04   -0.95690E-05  7087   0.321E-02    0.279E-02
RMM:  10    -0.634046582225E+03   -0.10093E-04   -0.47677E-05  5727   0.233E-02    0.519E-02
RMM:  11    -0.634046568762E+03    0.13463E-04   -0.24706E-05  5179   0.222E-02    0.110E-02
RMM:  12    -0.634046571524E+03   -0.27625E-05   -0.15051E-05  5072   0.124E-02
  26 F= -.63404657E+03 E0= -.63398967E+03  d E =-.957963E-03
 curvature:  -1.54 expect dE=-0.204E-02 dE for cont linesearch -0.130E-04
 ZBRENT: extrapolating
 opt :   0.6147  next Energy=  -634.046588 (dE=-0.974E-03)
 bond charge predicted
       N       E                     dE             d eps       ncg     rms          rms(c)
DAV:   1    -0.634046033867E+03    0.53489E-03   -0.23275E-02  9408   0.934E-01    0.612E-02
RMM:   2    -0.634046800328E+03   -0.76646E-03   -0.55059E-03 12229   0.223E-01    0.203E-01
RMM:   3    -0.634046603694E+03    0.19663E-03   -0.98295E-04  9050   0.106E-01    0.730E-02
RMM:   4    -0.634046637015E+03   -0.33321E-04   -0.25994E-04  8148   0.540E-02    0.890E-02
RMM:   5    -0.634046597915E+03    0.39100E-04   -0.62229E-05  5767   0.319E-02    0.221E-02
RMM:   6    -0.634046600639E+03   -0.27239E-05   -0.33314E-05  5529   0.209E-02
  27 F= -.63404660E+03 E0= -.63398965E+03  d E =-.987077E-03
 curvature:  -1.90 expect dE=-0.282E-02 dE for cont linesearch -0.123E-05
 trial: gam= 0.24824 g(F)=  0.144E-02 g(S)=  0.454E-04 ort =-0.114E-03 (trialstep = 0.280E+00)
 search vector abs. value=  0.266E-02
 bond charge predicted
       N       E                     dE             d eps       ncg     rms          rms(c)
DAV:   1    -0.634046280863E+03    0.31705E-03   -0.39639E-02  9408   0.114E+00    0.535E-02
RMM:   2    -0.634047085452E+03   -0.80459E-03   -0.65302E-03 11931   0.232E-01    0.184E-01
RMM:   3    -0.634046997605E+03    0.87847E-04   -0.10007E-03  9681   0.101E-01    0.835E-02
RMM:   4    -0.634047013043E+03   -0.15438E-04   -0.26005E-04  8178   0.587E-02    0.711E-02
RMM:   5    -0.634046984059E+03    0.28984E-04   -0.68082E-05  5907   0.310E-02    0.166E-02
RMM:   6    -0.634046990007E+03   -0.59486E-05   -0.34167E-05  5493   0.219E-02
  28 F= -.63404699E+03 E0= -.63399001E+03  d E =-.389368E-03
 ZBRENT: can't locate minimum, use default step
 trial-energy change:   -0.000389  1 .order   -0.000359   -0.000408   -0.000310
 step:   1.1203(harm=  1.1662)  dis= 0.00443  next Energy=  -634.047449 (dE=-0.849E-03)
 bond charge predicted
       N       E                     dE             d eps       ncg     rms          rms(c)
DAV:   1    -0.634041164593E+03    0.58195E-02   -0.35423E-01  8568   0.342E+00    0.158E-01
RMM:   2    -0.634048436935E+03   -0.72723E-02   -0.59797E-02 12057   0.701E-01    0.553E-01
RMM:   3    -0.634047716591E+03    0.72034E-03   -0.90479E-03 10526   0.294E-01    0.238E-01
RMM:   4    -0.634047882672E+03   -0.16608E-03   -0.22661E-03 10415   0.147E-01    0.221E-01
RMM:   5    -0.634047612168E+03    0.27050E-03   -0.60699E-04  9211   0.845E-02    0.686E-02
RMM:   6    -0.634047634641E+03   -0.22473E-04   -0.31176E-04  8202   0.475E-02    0.811E-02
RMM:   7    -0.634047610056E+03    0.24584E-04   -0.14729E-04  7922   0.351E-02    0.525E-02
RMM:   8    -0.634047633965E+03   -0.23909E-04   -0.12133E-04  7260   0.335E-02    0.858E-02
RMM:   9    -0.634047597465E+03    0.36500E-04   -0.71809E-05  6919   0.271E-02    0.248E-02
RMM:  10    -0.634047599470E+03   -0.20045E-05   -0.27894E-05  5314   0.193E-02
  29 F= -.63404760E+03 E0= -.63399058E+03  d E =-.998831E-03
 curvature:  -1.06 expect dE=-0.128E-02 dE for cont linesearch -0.169E-04
 trial: gam= 0.72506 g(F)=  0.764E-03 g(S)=  0.437E-03 ort = 0.206E-03 (trialstep = 0.411E+00)
 search vector abs. value=  0.290E-02
 bond charge predicted
       N       E                     dE             d eps       ncg     rms          rms(c)
DAV:   1    -0.634046682890E+03    0.91457E-03   -0.95224E-02 10164   0.183E+00    0.197E-01
RMM:   2    -0.634051907825E+03   -0.52249E-02   -0.20682E-02 10714   0.492E-01    0.742E-01
RMM:   3    -0.634048120104E+03    0.37877E-02   -0.46003E-03  9113   0.294E-01    0.198E-01
RMM:   4    -0.634048352062E+03   -0.23196E-03   -0.19171E-03 10649   0.133E-01    0.249E-01
RMM:   5    -0.634048052266E+03    0.29980E-03   -0.42074E-04  9191   0.754E-02    0.755E-02
RMM:   6    -0.634048069966E+03   -0.17700E-04   -0.23418E-04  7647   0.477E-02    0.869E-02
RMM:   7    -0.634048034206E+03    0.35760E-04   -0.99698E-05  7020   0.316E-02    0.365E-02
RMM:   8    -0.634048045588E+03   -0.11382E-04   -0.52165E-05  5693   0.264E-02    0.573E-02
RMM:   9    -0.634048030917E+03    0.14671E-04   -0.32029E-05  5344   0.235E-02    0.124E-02
RMM:  10    -0.634048032737E+03   -0.18195E-05   -0.19321E-05  5202   0.152E-02
  30 F= -.63404803E+03 E0= -.63399102E+03  d E =-.433267E-03
 trial-energy change:   -0.000433  1 .order   -0.000433   -0.000555   -0.000311
 step:   0.9365(harm=  0.9365)  dis= 0.00437  next Energy=  -634.048232 (dE=-0.632E-03)
 bond charge predicted
       N       E                     dE             d eps       ncg     rms          rms(c)
DAV:   1    -0.634046064695E+03    0.19662E-02   -0.15533E-01  9828   0.234E+00    0.253E-01
RMM:   2    -0.634054710601E+03   -0.86459E-02   -0.33630E-02 10706   0.629E-01    0.957E-01
RMM:   3    -0.634048410148E+03    0.63005E-02   -0.75538E-03  9209   0.375E-01    0.261E-01
RMM:   4    -0.634048749593E+03   -0.33945E-03   -0.31054E-03 10858   0.167E-01    0.313E-01
RMM:   5    -0.634048270722E+03    0.47887E-03   -0.68965E-04  9573   0.940E-02    0.943E-02
RMM:   6    -0.634048304347E+03   -0.33625E-04   -0.37440E-04  8533   0.580E-02    0.115E-01
RMM:   7    -0.634048241787E+03    0.62560E-04   -0.16066E-04  7914   0.393E-02    0.453E-02
RMM:   8    -0.634048260429E+03   -0.18642E-04   -0.82785E-05  6306   0.315E-02    0.726E-02
RMM:   9    -0.634048235800E+03    0.24629E-04   -0.49529E-05  5935   0.270E-02    0.171E-02
RMM:  10    -0.634048243327E+03   -0.75271E-05   -0.27401E-05  5293   0.183E-02
  31 F= -.63404824E+03 E0= -.63399126E+03  d E =-.643857E-03
 curvature:  -1.00 expect dE=-0.160E-02 dE for cont linesearch -0.150E-06
 trial: gam= 1.43373 g(F)=  0.659E-03 g(S)=  0.930E-03 ort = 0.208E-04 (trialstep = 0.197E+00)
 search vector abs. value=  0.760E-02
 bond charge predicted
       N       E                     dE             d eps       ncg     rms          rms(c)
DAV:   1    -0.634047360465E+03    0.87533E-03   -0.59262E-02  8960   0.145E+00    0.585E-02
RMM:   2    -0.634048512762E+03   -0.11523E-02   -0.10687E-02 12233   0.294E-01    0.167E-01
RMM:   3    -0.634048559381E+03   -0.46619E-04   -0.16284E-03 10083   0.117E-01    0.955E-02
RMM:   4    -0.634048585946E+03   -0.26565E-04   -0.33674E-04  8824   0.679E-02    0.842E-02
RMM:   5    -0.634048544727E+03    0.41219E-04   -0.89935E-05  6191   0.368E-02    0.225E-02
RMM:   6    -0.634048549306E+03   -0.45795E-05   -0.48066E-05  5868   0.233E-02
  32 F= -.63404855E+03 E0= -.63399154E+03  d E =-.305979E-03
 trial-energy change:   -0.000306  1 .order   -0.000273   -0.000319   -0.000228
 step:   0.6890(harm=  0.6890)  dis= 0.00552  next Energy=  -634.048801 (dE=-0.558E-03)
 bond charge predicted
       N       E                     dE             d eps       ncg     rms          rms(c)
DAV:   1    -0.634041682667E+03    0.68621E-02   -0.37121E-01  8232   0.362E+00    0.148E-01
RMM:   2    -0.634049116976E+03   -0.74343E-02   -0.67051E-02 12259   0.735E-01    0.452E-01
RMM:   3    -0.634049215170E+03   -0.98195E-04   -0.10269E-02 10747   0.293E-01    0.234E-01
RMM:   4    -0.634049378644E+03   -0.16347E-03   -0.20799E-03 10427   0.146E-01    0.210E-01
RMM:   5    -0.634049113450E+03    0.26519E-03   -0.55206E-04  8926   0.840E-02    0.528E-02
RMM:   6    -0.634049150736E+03   -0.37286E-04   -0.31276E-04  8424   0.466E-02    0.870E-02
RMM:   7    -0.634049122203E+03    0.28533E-04   -0.14296E-04  7568   0.362E-02    0.425E-02
RMM:   8    -0.634049139646E+03   -0.17443E-04   -0.13093E-04  7906   0.317E-02    0.747E-02
RMM:   9    -0.634049113640E+03    0.26005E-04   -0.48291E-05  5588   0.252E-02    0.172E-02
RMM:  10    -0.634049119698E+03   -0.60579E-05   -0.26795E-05  5288   0.191E-02
  33 F= -.63404912E+03 E0= -.63399206E+03  d E =-.876371E-03
 curvature:  -1.62 expect dE=-0.201E-02 dE for cont linesearch -0.136E-03
 ZBRENT: increasing intervall
 opt :   1.6736  next Energy=  -634.049556 (dE=-0.131E-02)
 bond charge predicted
       N       E                     dE             d eps       ncg     rms          rms(c)
DAV:   1    -0.634019741365E+03    0.29372E-01   -0.14843E+00  8232   0.725E+00    0.296E-01
RMM:   2    -0.634048958914E+03   -0.29218E-01   -0.26878E-01 12268   0.147E+00    0.857E-01
RMM:   3    -0.634049879548E+03   -0.92063E-03   -0.40066E-02 10920   0.583E-01    0.485E-01
RMM:   4    -0.634050477665E+03   -0.59812E-03   -0.84040E-03 10844   0.283E-01    0.424E-01
RMM:   5    -0.634049444489E+03    0.10332E-02   -0.22228E-03  9686   0.164E-01    0.122E-01
RMM:   6    -0.634049535462E+03   -0.90974E-04   -0.12407E-03 10208   0.853E-02    0.148E-01
RMM:   7    -0.634049451837E+03    0.83625E-04   -0.49801E-04  9540   0.572E-02    0.742E-02
RMM:   8    -0.634049437615E+03    0.14222E-04   -0.44633E-04 10083   0.522E-02    0.767E-02
RMM:   9    -0.634049423627E+03    0.13988E-04   -0.15439E-04  7236   0.354E-02    0.411E-02
RMM:  10    -0.634049422989E+03    0.63856E-06   -0.76618E-05  5878   0.225E-02
  34 F= -.63404942E+03 E0= -.63399228E+03  d E =-.117966E-02
 curvature:  -5.18 expect dE=-0.159E-01 dE for cont linesearch -0.114E-03
 ZBRENT: bracketing found
 ZBRENT: interpolating
 opt :   1.3408  next Energy=  -634.049491 (dE=-0.125E-02)
 bond charge predicted
       N       E                     dE             d eps       ncg     rms          rms(c)
DAV:   1    -0.634046109569E+03    0.33141E-02   -0.16933E-01  8288   0.245E+00    0.102E-01
RMM:   2    -0.634049656865E+03   -0.35473E-02   -0.30508E-02 12247   0.495E-01    0.358E-01
RMM:   3    -0.634049484832E+03    0.17203E-03   -0.44904E-03 10372   0.203E-01    0.147E-01
RMM:   4    -0.634049570898E+03   -0.86066E-04   -0.94159E-04 10080   0.103E-01    0.142E-01
RMM:   5    -0.634049453453E+03    0.11744E-03   -0.22614E-04  7578   0.583E-02    0.463E-02
RMM:   6    -0.634049459381E+03   -0.59283E-05   -0.11703E-04  6911   0.341E-02    0.484E-02
RMM:   7    -0.634049450276E+03    0.91049E-05   -0.41362E-05  5569   0.246E-02
  35 F= -.63404945E+03 E0= -.63399230E+03  d E =-.120695E-02
 curvature:  -3.10 expect dE=-0.670E-02 dE for cont linesearch -0.331E-04
 trial: gam= 1.13011 g(F)=  0.208E-02 g(S)=  0.841E-04 ort = 0.285E-03 (trialstep = 0.258E+00)
 search vector abs. value=  0.125E-01
 bond charge predicted
       N       E                     dE             d eps       ncg     rms          rms(c)
DAV:   1    -0.634045242479E+03    0.42169E-02   -0.16811E-01  7952   0.263E+00    0.132E-01
RMM:   2    -0.634050679245E+03   -0.54368E-02   -0.42794E-02 12376   0.582E-01    0.516E-01
RMM:   3    -0.634050004911E+03    0.67433E-03   -0.75543E-03 10062   0.245E-01    0.162E-01
RMM:   4    -0.634050227682E+03   -0.22277E-03   -0.14694E-03 10008   0.120E-01    0.217E-01
RMM:   5    -0.634050002219E+03    0.22546E-03   -0.35332E-04  7947   0.710E-02    0.702E-02
RMM:   6    -0.634049993318E+03    0.89012E-05   -0.18846E-04  7395   0.424E-02    0.455E-02
RMM:   7    -0.634049989760E+03    0.35579E-05   -0.62434E-05  5978   0.268E-02
  36 F= -.63404999E+03 E0= -.63399284E+03  d E =-.539483E-03
 trial-energy change:   -0.000539  1 .order   -0.000510   -0.000642   -0.000378
 step:   0.6277(harm=  0.6277)  dis= 0.00656  next Energy=  -634.050230 (dE=-0.780E-03)
 bond charge predicted
       N       E                     dE             d eps       ncg     rms          rms(c)
DAV:   1    -0.634040787100E+03    0.92062E-02   -0.34261E-01  7840   0.375E+00    0.176E-01
RMM:   2    -0.634050819483E+03   -0.10032E-01   -0.86524E-02 12401   0.822E-01    0.543E-01
RMM:   3    -0.634050689176E+03    0.13031E-03   -0.15636E-02 10564   0.337E-01    0.259E-01
RMM:   4    -0.634050935471E+03   -0.24630E-03   -0.27397E-03 10512   0.154E-01    0.257E-01
RMM:   5    -0.634050604634E+03    0.33084E-03   -0.70648E-04  9077   0.882E-02    0.898E-02
RMM:   6    -0.634050607264E+03   -0.26302E-05   -0.34577E-04  8435   0.503E-02    0.715E-02
RMM:   7    -0.634050590190E+03    0.17074E-04   -0.16169E-04  8172   0.341E-02    0.494E-02
RMM:   8    -0.634050620399E+03   -0.30209E-04   -0.12948E-04  7422   0.368E-02    0.916E-02
RMM:   9    -0.634050579082E+03    0.41317E-04   -0.72226E-05  6655   0.285E-02    0.252E-02
RMM:  10    -0.634050585544E+03   -0.64619E-05   -0.35241E-05  5400   0.199E-02
  37 F= -.63405059E+03 E0= -.63399339E+03  d E =-.113527E-02
 curvature:  -1.58 expect dE=-0.160E-02 dE for cont linesearch -0.190E-03
 ZBRENT: increasing intervall
 opt :   1.3662  next Energy=  -634.051318 (dE=-0.187E-02)
 bond charge predicted
       N       E                     dE             d eps       ncg     rms          rms(c)
DAV:   1    -0.634011955122E+03    0.38624E-01   -0.13685E+00  7840   0.750E+00    0.342E-01
RMM:   2    -0.634049678359E+03   -0.37723E-01   -0.34472E-01 12415   0.164E+00    0.940E-01
RMM:   3    -0.634051902192E+03   -0.22238E-02   -0.62269E-02 10847   0.650E-01    0.564E-01
RMM:   4    -0.634052722401E+03   -0.82021E-03   -0.99918E-03 10721   0.300E-01    0.529E-01
RMM:   5    -0.634051209060E+03    0.15133E-02   -0.26575E-03  9528   0.180E-01    0.151E-01
RMM:   6    -0.634051284605E+03   -0.75545E-04   -0.14938E-03 10307   0.901E-02    0.151E-01
RMM:   7    -0.634051208522E+03    0.76083E-04   -0.54404E-04  9617   0.568E-02    0.897E-02
RMM:   8    -0.634051322334E+03   -0.11381E-03   -0.48406E-04  9422   0.599E-02    0.172E-01
RMM:   9    -0.634051170214E+03    0.15212E-03   -0.25427E-04  8811   0.492E-02    0.442E-02
RMM:  10    -0.634051204901E+03   -0.34687E-04   -0.12653E-04  6725   0.329E-02    0.882E-02
RMM:  11    -0.634051169163E+03    0.35739E-04   -0.58912E-05  5619   0.273E-02    0.161E-02
RMM:  12    -0.634051175937E+03   -0.67741E-05   -0.37124E-05  5466   0.175E-02
  38 F= -.63405118E+03 E0= -.63399394E+03  d E =-.172566E-02
 curvature:  -6.09 expect dE=-0.119E-01 dE for cont linesearch -0.328E-05
 trial: gam= 0.83063 g(F)=  0.108E-02 g(S)=  0.867E-03 ort = 0.821E-04 (trialstep = 0.480E+00)
 search vector abs. value=  0.107E-01
 bond charge predicted
       N       E                     dE             d eps       ncg     rms          rms(c)
DAV:   1    -0.634040152184E+03    0.11017E-01   -0.50429E-01  8372   0.447E+00    0.306E-01
RMM:   2    -0.634057992737E+03   -0.17841E-01   -0.12246E-01 12216   0.100E+00    0.102E+00
RMM:   3    -0.634052057152E+03    0.59356E-02   -0.19925E-02  9766   0.499E-01    0.306E-01
RMM:   4    -0.634053062985E+03   -0.10058E-02   -0.57515E-03 10593   0.221E-01    0.473E-01
RMM:   5    -0.634052020970E+03    0.10420E-02   -0.15485E-03  9603   0.135E-01    0.128E-01
RMM:   6    -0.634052073978E+03   -0.53008E-04   -0.84637E-04  9550   0.756E-02    0.143E-01
RMM:   7    -0.634051980684E+03    0.93294E-04   -0.31683E-04  8996   0.501E-02    0.613E-02
RMM:   8    -0.634052043540E+03   -0.62855E-04   -0.21878E-04  7882   0.453E-02    0.123E-01
RMM:   9    -0.634051970711E+03    0.72828E-04   -0.14005E-04  7756   0.382E-02    0.283E-02
RMM:  10    -0.634051992165E+03   -0.21454E-04   -0.67954E-05  6035   0.255E-02    0.695E-02
RMM:  11    -0.634051971811E+03    0.20354E-04   -0.34921E-05  5354   0.240E-02    0.116E-02
RMM:  12    -0.634051976648E+03   -0.48368E-05   -0.20099E-05  5184   0.136E-02
  39 F= -.63405198E+03 E0= -.63399481E+03  d E =-.800711E-03
 trial-energy change:   -0.000801  1 .order   -0.000748   -0.000968   -0.000528
 step:   0.7517(harm=  1.0575)  dis= 0.00724  next Energy=  -634.052136 (dE=-0.960E-03)
 bond charge predicted
       N       E                     dE             d eps       ncg     rms          rms(c)
DAV:   1    -0.634048669356E+03    0.33025E-02   -0.16414E-01  9184   0.253E+00    0.173E-01
RMM:   2    -0.634054196441E+03   -0.55271E-02   -0.37412E-02 12173   0.549E-01    0.576E-01
RMM:   3    -0.634052222439E+03    0.19740E-02   -0.56765E-03  9489   0.280E-01    0.171E-01
RMM:   4    -0.634052556718E+03   -0.33428E-03   -0.18617E-03 10184   0.132E-01    0.270E-01
RMM:   5    -0.634052219510E+03    0.33721E-03   -0.50511E-04  8930   0.787E-02    0.712E-02
RMM:   6    -0.634052237669E+03   -0.18159E-04   -0.27136E-04  7749   0.463E-02    0.800E-02
RMM:   7    -0.634052209263E+03    0.28406E-04   -0.98998E-05  6733   0.311E-02    0.345E-02
RMM:   8    -0.634052228915E+03   -0.19652E-04   -0.72433E-05  6241   0.288E-02    0.678E-02
RMM:   9    -0.634052208105E+03    0.20810E-04   -0.47450E-05  5988   0.266E-02    0.179E-02
RMM:  10    -0.634052216609E+03   -0.85037E-05   -0.27097E-05  5230   0.195E-02
  40 F= -.63405222E+03 E0= -.63399510E+03  d E =-.104067E-02
 curvature:  -2.02 expect dE=-0.226E-02 dE for cont linesearch -0.589E-04
 ZBRENT: increasing intervall
 opt :   1.2950  next Energy=  -634.052226 (dE=-0.105E-02)
 bond charge predicted
       N       E                     dE             d eps       ncg     rms          rms(c)
DAV:   1    -0.634038109418E+03    0.14099E-01   -0.65558E-01  8344   0.506E+00    0.345E-01
RMM:   2    -0.634060180867E+03   -0.22071E-01   -0.14962E-01 12174   0.110E+00    0.115E+00
RMM:   3    -0.634052311946E+03    0.78689E-02   -0.22927E-02  9774   0.559E-01    0.345E-01
RMM:   4    -0.634053616216E+03   -0.13043E-02   -0.72531E-03 10661   0.251E-01    0.539E-01
RMM:   5    -0.634052259245E+03    0.13570E-02   -0.19869E-03  9789   0.153E-01    0.142E-01
RMM:   6    -0.634052331048E+03   -0.71803E-04   -0.10559E-03  9853   0.826E-02    0.162E-01
RMM:   7    -0.634052204657E+03    0.12639E-03   -0.39601E-04  9324   0.551E-02    0.633E-02
RMM:   8    -0.634052290570E+03   -0.85912E-04   -0.27977E-04  8407   0.504E-02    0.139E-01
RMM:   9    -0.634052193359E+03    0.97210E-04   -0.16506E-04  7855   0.432E-02    0.291E-02
RMM:  10    -0.634052212164E+03   -0.18804E-04   -0.80743E-05  6438   0.258E-02    0.647E-02
RMM:  11    -0.634052195453E+03    0.16711E-04   -0.38167E-05  5418   0.227E-02    0.137E-02
RMM:  12    -0.634052200678E+03   -0.52251E-05   -0.22195E-05  5261   0.145E-02
  41 F= -.63405220E+03 E0= -.63399519E+03  d E =-.102474E-02
 curvature:  -0.31 expect dE=-0.115E-02 dE for cont linesearch -0.143E-04
 ZBRENT: bracketing found
 ZBRENT: interpolating
 opt :   0.9927  next Energy=  -634.052284 (dE=-0.111E-02)
 bond charge predicted
       N       E                     dE             d eps       ncg     rms          rms(c)
DAV:   1    -0.634047988283E+03    0.42072E-02   -0.20297E-01  8456   0.282E+00    0.191E-01
RMM:   2    -0.634054663634E+03   -0.66754E-02   -0.45847E-02 12179   0.607E-01    0.632E-01
RMM:   3    -0.634052368975E+03    0.22947E-02   -0.70341E-03  9594   0.308E-01    0.191E-01
RMM:   4    -0.634052753451E+03   -0.38448E-03   -0.21009E-03 10278   0.142E-01    0.299E-01
RMM:   5    -0.634052327210E+03    0.42624E-03   -0.55715E-04  8870   0.862E-02    0.809E-02
RMM:   6    -0.634052342445E+03   -0.15235E-04   -0.29761E-04  8060   0.501E-02    0.887E-02
RMM:   7    -0.634052300781E+03    0.41664E-04   -0.10411E-04  7028   0.333E-02    0.378E-02
RMM:   8    -0.634052319772E+03   -0.18991E-04   -0.66919E-05  6269   0.297E-02    0.735E-02
RMM:   9    -0.634052289872E+03    0.29900E-04   -0.46471E-05  6233   0.271E-02    0.194E-02
RMM:  10    -0.634052296986E+03   -0.71142E-05   -0.23052E-05  5064   0.202E-02
  42 F= -.63405230E+03 E0= -.63399524E+03  d E =-.112105E-02
 curvature:  -1.47 expect dE=-0.298E-02 dE for cont linesearch -0.732E-06
 trial: gam= 1.21772 g(F)=  0.902E-03 g(S)=  0.113E-02 ort = 0.731E-04 (trialstep = 0.345E+00)
 search vector abs. value=  0.181E-01
 bond charge predicted
       N       E                     dE             d eps       ncg     rms          rms(c)
DAV:   1    -0.634042670277E+03    0.96196E-02   -0.45930E-01  8232   0.426E+00    0.165E-01
RMM:   2    -0.634052050054E+03   -0.93798E-02   -0.91634E-02 12272   0.831E-01    0.363E-01
RMM:   3    -0.634053204303E+03   -0.11542E-02   -0.14428E-02 10814   0.325E-01    0.319E-01
RMM:   4    -0.634053258272E+03   -0.53969E-04   -0.23443E-03 10264   0.160E-01    0.244E-01
RMM:   5    -0.634052904415E+03    0.35386E-03   -0.61928E-04  8704   0.928E-02    0.525E-02
RMM:   6    -0.634052927343E+03   -0.22928E-04   -0.34548E-04  8862   0.479E-02    0.743E-02
RMM:   7    -0.634052913529E+03    0.13814E-04   -0.12987E-04  7124   0.358E-02    0.517E-02
RMM:   8    -0.634052913386E+03    0.14329E-06   -0.13656E-04  8310   0.319E-02    0.603E-02
RMM:   9    -0.634052895715E+03    0.17670E-04   -0.44460E-05  5596   0.256E-02    0.180E-02
RMM:  10    -0.634052895206E+03    0.50948E-06   -0.22146E-05  5321   0.179E-02
  43 F= -.63405290E+03 E0= -.63399587E+03  d E =-.598220E-03
 trial-energy change:   -0.000598  1 .order   -0.000606   -0.000731   -0.000481
 step:   1.0100(harm=  1.0100)  dis= 0.01262  next Energy=  -634.053367 (dE=-0.107E-02)
 bond charge predicted
       N       E                     dE             d eps       ncg     rms          rms(c)
DAV:   1    -0.634015179195E+03    0.37717E-01   -0.17060E+00  8232   0.818E+00    0.318E-01
RMM:   2    -0.634050007501E+03   -0.34828E-01   -0.34245E-01 12284   0.161E+00    0.690E-01
RMM:   3    -0.634054575258E+03   -0.45678E-02   -0.53804E-02 11012   0.629E-01    0.628E-01
RMM:   4    -0.634054697483E+03   -0.12222E-03   -0.91360E-03 10722   0.301E-01    0.459E-01
RMM:   5    -0.634053474801E+03    0.12227E-02   -0.25229E-03  9575   0.175E-01    0.113E-01
RMM:   6    -0.634053600614E+03   -0.12581E-03   -0.13690E-03 10329   0.878E-02    0.167E-01
RMM:   7    -0.634053514373E+03    0.86241E-04   -0.55386E-04  9661   0.604E-02    0.100E-01
RMM:   8    -0.634053590204E+03   -0.75831E-04   -0.50566E-04  9645   0.606E-02    0.161E-01
RMM:   9    -0.634053457590E+03    0.13261E-03   -0.24788E-04  8819   0.489E-02    0.333E-02
RMM:  10    -0.634053487834E+03   -0.30244E-04   -0.11006E-04  6352   0.295E-02    0.771E-02
RMM:  11    -0.634053459686E+03    0.28149E-04   -0.53999E-05  5713   0.281E-02    0.163E-02
RMM:  12    -0.634053461996E+03   -0.23097E-05   -0.33498E-05  5516   0.144E-02
  44 F= -.63405346E+03 E0= -.63399654E+03  d E =-.116501E-02
 curvature:  -4.32 expect dE=-0.405E-02 dE for cont linesearch -0.363E-07
 trial: gam= 0.17396 g(F)=  0.789E-03 g(S)=  0.149E-03 ort = 0.123E-04 (trialstep = 0.478E+00)
 search vector abs. value=  0.149E-02
 bond charge predicted
       N       E                     dE             d eps       ncg     rms          rms(c)
DAV:   1    -0.634052663763E+03    0.79592E-03   -0.64472E-02 10248   0.163E+00    0.144E-01
RMM:   2    -0.634056097343E+03   -0.34336E-02   -0.14689E-02 11243   0.399E-01    0.607E-01
RMM:   3    -0.634054010643E+03    0.20867E-02   -0.30118E-03  9132   0.225E-01    0.222E-01
RMM:   4    -0.634053943241E+03    0.67403E-04   -0.11228E-03 10132   0.110E-01    0.138E-01
RMM:   5    -0.634053860087E+03    0.83154E-04   -0.30177E-04  8974   0.545E-02    0.784E-02
RMM:   6    -0.634053839969E+03    0.20118E-04   -0.95832E-05  6256   0.382E-02    0.493E-02
RMM:   7    -0.634053830386E+03    0.95828E-05   -0.60513E-05  5942   0.276E-02
  45 F= -.63405383E+03 E0= -.63399689E+03  d E =-.368390E-03
 trial-energy change:   -0.000368  1 .order   -0.000343   -0.000449   -0.000236
 step:   1.0089(harm=  1.0089)  dis= 0.00245  next Energy=  -634.053936 (dE=-0.474E-03)
 bond charge predicted
       N       E                     dE             d eps       ncg     rms          rms(c)
DAV:   1    -0.634052612925E+03    0.12270E-02   -0.79928E-02 10192   0.181E+00    0.170E-01
RMM:   2    -0.634057509058E+03   -0.48961E-02   -0.18157E-02 11043   0.447E-01    0.758E-01
RMM:   3    -0.634054200178E+03    0.33089E-02   -0.38411E-03  9119   0.265E-01    0.254E-01
RMM:   4    -0.634054089249E+03    0.11093E-03   -0.14795E-03 10299   0.124E-01    0.148E-01
RMM:   5    -0.634054030562E+03    0.58687E-04   -0.41930E-04  9429   0.615E-02    0.119E-01
RMM:   6    -0.634053965101E+03    0.65462E-04   -0.12146E-04  6721   0.437E-02    0.468E-02
RMM:   7    -0.634053975085E+03   -0.99848E-05   -0.10135E-04  6930   0.317E-02    0.746E-02
RMM:   8    -0.634053949899E+03    0.25186E-04   -0.44472E-05  5533   0.277E-02    0.309E-02
RMM:   9    -0.634053956575E+03   -0.66761E-05   -0.31160E-05  5308   0.221E-02
  46 F= -.63405396E+03 E0= -.63399702E+03  d E =-.494580E-03
 curvature:  -0.80 expect dE=-0.518E-03 dE for cont linesearch -0.858E-07
 trial: gam= 0.71142 g(F)=  0.295E-03 g(S)=  0.352E-03 ort = 0.126E-04 (trialstep = 0.584E+00)
 search vector abs. value=  0.142E-02
 bond charge predicted
       N       E                     dE             d eps       ncg     rms          rms(c)
DAV:   1    -0.634052560872E+03    0.13890E-02   -0.88029E-02  9660   0.184E+00    0.184E-01
RMM:   2    -0.634057580515E+03   -0.50196E-02   -0.21498E-02 10999   0.514E-01    0.701E-01
RMM:   3    -0.634054312686E+03    0.32678E-02   -0.49126E-03  9133   0.284E-01    0.195E-01
RMM:   4    -0.634054491352E+03   -0.17867E-03   -0.18351E-03 10474   0.128E-01    0.226E-01
RMM:   5    -0.634054258654E+03    0.23270E-03   -0.42534E-04  9261   0.695E-02    0.785E-02
RMM:   6    -0.634054262930E+03   -0.42766E-05   -0.19198E-04  7171   0.442E-02    0.797E-02
RMM:   7    -0.634054234105E+03    0.28825E-04   -0.86501E-05  6750   0.322E-02    0.373E-02
RMM:   8    -0.634054246784E+03   -0.12679E-04   -0.51181E-05  5780   0.267E-02    0.625E-02
RMM:   9    -0.634054230558E+03    0.16226E-04   -0.32176E-05  5357   0.247E-02    0.226E-02
RMM:  10    -0.634054236865E+03   -0.63066E-05   -0.20001E-05  4982   0.189E-02
  47 F= -.63405424E+03 E0= -.63399732E+03  d E =-.280289E-03
 trial-energy change:   -0.000280  1 .order   -0.000278   -0.000384   -0.000173
 step:   1.0660(harm=  1.0660)  dis= 0.00330  next Energy=  -634.054307 (dE=-0.350E-03)
 bond charge predicted
       N       E                     dE             d eps       ncg     rms          rms(c)
DAV:   1    -0.634053119888E+03    0.11107E-02   -0.59566E-02  9408   0.151E+00    0.153E-01
RMM:   2    -0.634056634408E+03   -0.35145E-02   -0.14830E-02 11011   0.426E-01    0.587E-01
RMM:   3    -0.634054326972E+03    0.23074E-02   -0.33842E-03  9064   0.238E-01    0.162E-01
RMM:   4    -0.634054450989E+03   -0.12402E-03   -0.12583E-03 10268   0.107E-01    0.189E-01
RMM:   5    -0.634054293059E+03    0.15793E-03   -0.29778E-04  8748   0.582E-02    0.655E-02
RMM:   6    -0.634054293205E+03   -0.14557E-06   -0.12719E-04  6496   0.367E-02    0.623E-02
RMM:   7    -0.634054276145E+03    0.17060E-04   -0.57861E-05  5895   0.290E-02    0.304E-02
RMM:   8    -0.634054284563E+03   -0.84180E-05   -0.36963E-05  5523   0.239E-02
  48 F= -.63405428E+03 E0= -.63399742E+03  d E =-.327988E-03
 curvature:  -1.15 expect dE=-0.393E-03 dE for cont linesearch -0.337E-05
 trial: gam= 0.46148 g(F)=  0.303E-03 g(S)=  0.378E-04 ort =-0.644E-04 (trialstep = 0.681E+00)
 search vector abs. value=  0.584E-03
 bond charge predicted
       N       E                     dE             d eps       ncg     rms          rms(c)
DAV:   1    -0.634053600275E+03    0.67587E-03   -0.48500E-02  8988   0.122E+00    0.505E-02
RMM:   2    -0.634054451061E+03   -0.85079E-03   -0.75987E-03 12236   0.269E-01    0.162E-01
RMM:   3    -0.634054434366E+03    0.16695E-04   -0.11603E-03 10082   0.102E-01    0.587E-02
RMM:   4    -0.634054453292E+03   -0.18926E-04   -0.24823E-04  8609   0.579E-02    0.596E-02
RMM:   5    -0.634054436727E+03    0.16564E-04   -0.67575E-05  6012   0.317E-02    0.256E-02
RMM:   6    -0.634054440342E+03   -0.36147E-05   -0.34574E-05  5540   0.240E-02
  49 F= -.63405444E+03 E0= -.63399755E+03  d E =-.155779E-03
 trial-energy change:   -0.000156  1 .order   -0.000136   -0.000212   -0.000059
 step:   0.9452(harm=  0.9452)  dis= 0.00197  next Energy=  -634.054432 (dE=-0.147E-03)
 bond charge predicted
       N       E                     dE             d eps       ncg     rms          rms(c)
DAV:   1    -0.634054334309E+03    0.10242E-03   -0.73853E-03  9296   0.474E-01    0.248E-02
RMM:   2    -0.634054500065E+03   -0.16576E-03   -0.11794E-03 11641   0.103E-01    0.107E-01
RMM:   3    -0.634054460388E+03    0.39677E-04   -0.17922E-04  7406   0.523E-02    0.317E-02
RMM:   4    -0.634054463841E+03   -0.34524E-05   -0.53470E-05  5917   0.306E-02
  50 F= -.63405446E+03 E0= -.63399755E+03  d E =-.179277E-03
 curvature:  -0.89 expect dE=-0.101E-03 dE for cont linesearch -0.226E-05
 ZBRENT: interpolating
 opt :   0.8640  next Energy=  -634.054465 (dE=-0.181E-03)
 bond charge predicted
       N       E                     dE             d eps       ncg     rms          rms(c)
DAV:   1    -0.634054446847E+03    0.13541E-04   -0.69270E-04  9772   0.155E-01    0.168E-02
RMM:   2    -0.634054503402E+03   -0.56555E-04   -0.13309E-04  7855   0.378E-02    0.935E-02
RMM:   3    -0.634054456008E+03    0.47394E-04   -0.30283E-05  5175   0.275E-02    0.150E-02
RMM:   4    -0.634054457508E+03   -0.14999E-05   -0.10801E-05  4765   0.145E-02
  51 F= -.63405446E+03 E0= -.63399756E+03  d E =-.172945E-03
 curvature:  -0.61 expect dE=-0.164E-03 dE for cont linesearch -0.302E-04
 ZBRENT: interpolating
 opt :   0.9301  next Energy=  -634.054464 (dE=-0.180E-03)
 bond charge predicted
       N       E                     dE             d eps       ncg     rms          rms(c)
DAV:   1    -0.634054454018E+03    0.19897E-05   -0.43202E-04  9716   0.121E-01    0.124E-02
RMM:   2    -0.634054501290E+03   -0.47272E-04   -0.79006E-05  6494   0.321E-02    0.908E-02
RMM:   3    -0.634054461037E+03    0.40253E-04   -0.23621E-05  5115   0.269E-02    0.148E-02
RMM:   4    -0.634054460362E+03    0.67476E-06   -0.80294E-06  4335   0.118E-02
  52 F= -.63405446E+03 E0= -.63399757E+03  d E =-.175799E-03
 curvature:  -0.01 expect dE=-0.118E-05 dE for cont linesearch -0.685E-09
 trial: gam= 0.40482 g(F)=  0.940E-04 g(S)=  0.105E-03 ort =-0.821E-05 (trialstep = 0.730E+00)
 search vector abs. value=  0.288E-03
 bond charge predicted
       N       E                     dE             d eps       ncg     rms          rms(c)
DAV:   1    -0.634054703790E+03   -0.24275E-03   -0.27033E-02 11508   0.952E-01    0.199E-01
RMM:   2    -0.634059749103E+03   -0.50453E-02   -0.77915E-03  9487   0.397E-01    0.866E-01
RMM:   3    -0.634054969599E+03    0.47795E-02   -0.29601E-03  8859   0.259E-01    0.284E-01
RMM:   4    -0.634054725656E+03    0.24394E-03   -0.90023E-04  9774   0.113E-01    0.159E-01
RMM:   5    -0.634054618734E+03    0.10692E-03   -0.33143E-04  9313   0.569E-02    0.900E-02
RMM:   6    -0.634054594706E+03    0.24028E-04   -0.11140E-04  6682   0.386E-02    0.652E-02
RMM:   7    -0.634054570593E+03    0.24113E-04   -0.54224E-05  5924   0.273E-02    0.287E-02
RMM:   8    -0.634054574466E+03   -0.38729E-05   -0.25536E-05  5158   0.234E-02
  53 F= -.63405457E+03 E0= -.63399765E+03  d E =-.114104E-03
 trial-energy change:   -0.000114  1 .order   -0.000086   -0.000143   -0.000029
 step:   0.9162(harm=  0.9162)  dis= 0.00079  next Energy=  -634.054550 (dE=-0.895E-04)
 bond charge predicted
       N       E                     dE             d eps       ncg     rms          rms(c)
DAV:   1    -0.634054574087E+03   -0.34932E-05   -0.17074E-03 11872   0.244E-01    0.571E-02
RMM:   2    -0.634055031316E+03   -0.45723E-03   -0.60102E-04  8812   0.110E-01    0.267E-01
RMM:   3    -0.634054595981E+03    0.43533E-03   -0.24097E-04  7372   0.772E-02    0.859E-02
RMM:   4    -0.634054568220E+03    0.27761E-04   -0.62929E-05  6470   0.346E-02    0.402E-02
RMM:   5    -0.634054562720E+03    0.55001E-05   -0.23375E-05  5265   0.188E-02
  54 F= -.63405456E+03 E0= -.63399767E+03  d E =-.102358E-03
 curvature:  -0.67 expect dE=-0.632E-04 dE for cont linesearch -0.508E-05
 trial: gam= 0.00000 g(F)=  0.433E-04 g(S)=  0.504E-04 ort =-0.465E-04 (trialstep = 0.768E+00)
 search vector abs. value=  0.937E-04
 reached required accuracy - stopping structural energy minimisation
