   2   2   0   0
  0.1797830E+02  0.3300600E-09  0.3300600E-09  0.3300600E-09  0.5000000E-15
  1.000000000000000E-004
  CAR 
 HECN                                    
     33.34815223    -29.21634045  301      4.91721249      1.00000000
    -29.216  0.0000E+00  0.0000E+00
    -29.008  0.0000E+00  0.0000E+00
    -28.799  0.0000E+00  0.0000E+00
    -28.591  0.0000E+00  0.0000E+00
    -28.382  0.0000E+00  0.0000E+00
    -28.174  0.0000E+00  0.0000E+00
    -27.965  0.0000E+00  0.0000E+00
    -27.757  0.0000E+00  0.0000E+00
    -27.548  0.0000E+00  0.0000E+00
    -27.339  0.0000E+00  0.0000E+00
    -27.131  0.0000E+00  0.0000E+00
    -26.922  0.1609E-15  0.3355E-16
    -26.714  0.2966E-07  0.6186E-08
    -26.505  0.1291E-02  0.2692E-03
    -26.297  0.4181E-01  0.8989E-02
    -26.088  0.1135E+00  0.3266E-01
    -25.880  0.7326E-01  0.4794E-01
    -25.671  0.7425E-01  0.6342E-01
    -25.462  0.1697E+00  0.9880E-01
    -25.254  0.8778E-01  0.1171E+00
    -25.045  0.1385E-01  0.1200E+00
    -24.837  0.8551E-05  0.1200E+00
    -24.628  0.1591E-11  0.1200E+00
    -24.420  0.0000E+00  0.1200E+00
    -24.211  0.0000E+00  0.1200E+00
    -24.003  0.0000E+00  0.1200E+00
    -23.794  0.0000E+00  0.1200E+00
    -23.586  0.0000E+00  0.1200E+00
    -23.377  0.0000E+00  0.1200E+00
    -23.168  0.0000E+00  0.1200E+00
    -22.960  0.0000E+00  0.1200E+00
    -22.751  0.0000E+00  0.1200E+00
    -22.543  0.0000E+00  0.1200E+00
    -22.334  0.0000E+00  0.1200E+00
    -22.126  0.0000E+00  0.1200E+00
    -21.917  0.0000E+00  0.1200E+00
    -21.709  0.0000E+00  0.1200E+00
    -21.500  0.0000E+00  0.1200E+00
    -21.292  0.0000E+00  0.1200E+00
    -21.083  0.0000E+00  0.1200E+00
    -20.874  0.0000E+00  0.1200E+00
    -20.666  0.0000E+00  0.1200E+00
    -20.457  0.0000E+00  0.1200E+00
    -20.249  0.0000E+00  0.1200E+00
    -20.040  0.0000E+00  0.1200E+00
    -19.832  0.0000E+00  0.1200E+00
    -19.623  0.0000E+00  0.1200E+00
    -19.415  0.0000E+00  0.1200E+00
    -19.206  0.0000E+00  0.1200E+00
    -18.997  0.0000E+00  0.1200E+00
    -18.789  0.0000E+00  0.1200E+00
    -18.580  0.0000E+00  0.1200E+00
    -18.372  0.0000E+00  0.1200E+00
    -18.163  0.0000E+00  0.1200E+00
    -17.955  0.0000E+00  0.1200E+00
    -17.746  0.0000E+00  0.1200E+00
    -17.538  0.0000E+00  0.1200E+00
    -17.329  0.0000E+00  0.1200E+00
    -17.121  0.0000E+00  0.1200E+00
    -16.912  0.0000E+00  0.1200E+00
    -16.703  0.0000E+00  0.1200E+00
    -16.495  0.0000E+00  0.1200E+00
    -16.286  0.0000E+00  0.1200E+00
    -16.078  0.0000E+00  0.1200E+00
    -15.869  0.0000E+00  0.1200E+00
    -15.661  0.0000E+00  0.1200E+00
    -15.452  0.0000E+00  0.1200E+00
    -15.244  0.0000E+00  0.1200E+00
    -15.035  0.0000E+00  0.1200E+00
    -14.827  0.0000E+00  0.1200E+00
    -14.618  0.0000E+00  0.1200E+00
    -14.409  0.0000E+00  0.1200E+00
    -14.201  0.0000E+00  0.1200E+00
    -13.992  0.0000E+00  0.1200E+00
    -13.784  0.0000E+00  0.1200E+00
    -13.575  0.0000E+00  0.1200E+00
    -13.367  0.0000E+00  0.1200E+00
    -13.158  0.0000E+00  0.1200E+00
    -12.950  0.0000E+00  0.1200E+00
    -12.741  0.0000E+00  0.1200E+00
    -12.532  0.0000E+00  0.1200E+00
    -12.324  0.0000E+00  0.1200E+00
    -12.115  0.0000E+00  0.1200E+00
    -11.907  0.0000E+00  0.1200E+00
    -11.698  0.0000E+00  0.1200E+00
    -11.490  0.0000E+00  0.1200E+00
    -11.281  0.0000E+00  0.1200E+00
    -11.073  0.0000E+00  0.1200E+00
    -10.864  0.0000E+00  0.1200E+00
    -10.656  0.0000E+00  0.1200E+00
    -10.447  0.0000E+00  0.1200E+00
    -10.238  0.0000E+00  0.1200E+00
    -10.030  0.0000E+00  0.1200E+00
     -9.821  0.0000E+00  0.1200E+00
     -9.613  0.0000E+00  0.1200E+00
     -9.404  0.0000E+00  0.1200E+00
     -9.196  0.0000E+00  0.1200E+00
     -8.987  0.0000E+00  0.1200E+00
     -8.779  0.0000E+00  0.1200E+00
     -8.570  0.0000E+00  0.1200E+00
     -8.362  0.0000E+00  0.1200E+00
     -8.153  0.0000E+00  0.1200E+00
     -7.944  0.0000E+00  0.1200E+00
     -7.736  0.0000E+00  0.1200E+00
     -7.527  0.0000E+00  0.1200E+00
     -7.319  0.0000E+00  0.1200E+00
     -7.110  0.0000E+00  0.1200E+00
     -6.902  0.0000E+00  0.1200E+00
     -6.693  0.0000E+00  0.1200E+00
     -6.485  0.0000E+00  0.1200E+00
     -6.276  0.0000E+00  0.1200E+00
     -6.067  0.0000E+00  0.1200E+00
     -5.859  0.0000E+00  0.1200E+00
     -5.650  0.0000E+00  0.1200E+00
     -5.442  0.0000E+00  0.1200E+00
     -5.233  0.0000E+00  0.1200E+00
     -5.025  0.0000E+00  0.1200E+00
     -4.816  0.0000E+00  0.1200E+00
     -4.608  0.0000E+00  0.1200E+00
     -4.399  0.0000E+00  0.1200E+00
     -4.191  0.0000E+00  0.1200E+00
     -3.982  0.0000E+00  0.1200E+00
     -3.773  0.0000E+00  0.1200E+00
     -3.565  0.0000E+00  0.1200E+00
     -3.356  0.0000E+00  0.1200E+00
     -3.148  0.0000E+00  0.1200E+00
     -2.939  0.0000E+00  0.1200E+00
     -2.731  0.0000E+00  0.1200E+00
     -2.522  0.0000E+00  0.1200E+00
     -2.314  0.0000E+00  0.1200E+00
     -2.105  0.0000E+00  0.1200E+00
     -1.897  0.0000E+00  0.1200E+00
     -1.688  0.1009E-12  0.1200E+00
     -1.479  0.5595E-06  0.1200E+00
     -1.271  0.9115E-03  0.1202E+00
     -1.062  0.2601E-02  0.1207E+00
     -0.854  0.3849E-04  0.1207E+00
     -0.645  0.2770E-09  0.1207E+00
     -0.437  0.3943E-18  0.1207E+00
     -0.228  0.0000E+00  0.1207E+00
     -0.020  0.0000E+00  0.1207E+00
      0.189  0.5187E-13  0.1207E+00
      0.398  0.7985E-06  0.1207E+00
      0.606  0.3325E-02  0.1214E+00
      0.815  0.1743E-01  0.1251E+00
      1.023  0.2940E-02  0.1257E+00
      1.232  0.4233E-01  0.1345E+00
      1.440  0.5012E-02  0.1356E+00
      1.649  0.1281E-02  0.1358E+00
      1.857  0.3527E-01  0.1432E+00
      2.066  0.6080E-02  0.1444E+00
      2.274  0.1077E-01  0.1467E+00
      2.483  0.3556E-01  0.1541E+00
      2.692  0.2391E-01  0.1591E+00
      2.900  0.5706E-02  0.1603E+00
      3.109  0.2705E-01  0.1659E+00
      3.317  0.5068E-01  0.1765E+00
      3.526  0.3887E-01  0.1846E+00
      3.734  0.2722E-01  0.1903E+00
      3.943  0.3584E-01  0.1978E+00
      4.151  0.3567E-01  0.2052E+00
      4.360  0.4915E-01  0.2154E+00
      4.568  0.5367E-03  0.2156E+00
      4.777  0.3745E-03  0.2156E+00
      4.986  0.5328E-01  0.2267E+00
      5.194  0.4216E-01  0.2355E+00
      5.403  0.1245E-01  0.2381E+00
      5.611  0.8938E-02  0.2400E+00
      5.820  0.1493E-02  0.2403E+00
      6.028  0.1832E-01  0.2441E+00
      6.237  0.1775E-02  0.2445E+00
      6.445  0.2836E-01  0.2504E+00
      6.654  0.2182E-01  0.2550E+00
      6.863  0.3394E-01  0.2620E+00
      7.071  0.8642E-03  0.2622E+00
      7.280  0.2480E-04  0.2622E+00
      7.488  0.1629E-01  0.2656E+00
      7.697  0.2939E-01  0.2718E+00
      7.905  0.4898E-02  0.2728E+00
      8.114  0.8588E-01  0.2907E+00
      8.322  0.8190E-01  0.3078E+00
      8.531  0.2384E-01  0.3127E+00
      8.739  0.4789E-01  0.3227E+00
      8.948  0.1128E-02  0.3230E+00
      9.157  0.1854E-07  0.3230E+00
      9.365  0.3135E-13  0.3230E+00
      9.574  0.4461E-06  0.3230E+00
      9.782  0.1731E-02  0.3233E+00
      9.991  0.1017E-01  0.3254E+00
     10.199  0.1887E-01  0.3294E+00
     10.408  0.3040E-01  0.3357E+00
     10.616  0.1340E-01  0.3385E+00
     10.825  0.6874E-03  0.3387E+00
     11.033  0.3293E-01  0.3455E+00
     11.242  0.9019E-02  0.3474E+00
     11.451  0.1702E-02  0.3478E+00
     11.659  0.2439E-01  0.3528E+00
     11.868  0.2326E-02  0.3533E+00
     12.076  0.2007E-06  0.3533E+00
     12.285  0.4363E-14  0.3533E+00
     12.493  0.0000E+00  0.3533E+00
     12.702  0.0000E+00  0.3533E+00
     12.910  0.0000E+00  0.3533E+00
     13.119  0.1650E-11  0.3533E+00
     13.328  0.4391E-05  0.3533E+00
     13.536  0.3686E-02  0.3541E+00
     13.745  0.6908E-02  0.3555E+00
     13.953  0.5672E-04  0.3556E+00
     14.162  0.1350E-07  0.3556E+00
     14.370  0.7182E-03  0.3557E+00
     14.579  0.2315E-01  0.3605E+00
     14.787  0.4548E-02  0.3615E+00
     14.996  0.6724E-03  0.3616E+00
     15.204  0.4216E-01  0.3704E+00
     15.413  0.1427E-01  0.3734E+00
     15.622  0.2868E-01  0.3794E+00
     15.830  0.1366E-01  0.3822E+00
     16.039  0.1360E-04  0.3822E+00
     16.247  0.4185E-11  0.3822E+00
     16.456  0.0000E+00  0.3822E+00
     16.664  0.0000E+00  0.3822E+00
     16.873  0.0000E+00  0.3822E+00
     17.081  0.1504E-11  0.3822E+00
     17.290  0.6389E-05  0.3822E+00
     17.498  0.8172E-02  0.3839E+00
     17.707  0.2000E-01  0.3881E+00
     17.916  0.2396E-03  0.3881E+00
     18.124  0.8059E-04  0.3882E+00
     18.333  0.2248E-01  0.3929E+00
     18.541  0.7090E-01  0.4076E+00
     18.750  0.4831E-01  0.4177E+00
     18.958  0.1114E-01  0.4200E+00
     19.167  0.3132E-01  0.4266E+00
     19.375  0.1229E-02  0.4268E+00
     19.584  0.3344E-01  0.4338E+00
     19.793  0.2666E-01  0.4394E+00
     20.001  0.3329E-01  0.4463E+00
     20.210  0.1758E-02  0.4467E+00
     20.418  0.1179E-03  0.4467E+00
     20.627  0.1391E-01  0.4496E+00
     20.835  0.7276E-02  0.4511E+00
     21.044  0.8908E-05  0.4511E+00
     21.252  0.2833E-02  0.4517E+00
     21.461  0.3130E-01  0.4582E+00
     21.669  0.3513E-01  0.4656E+00
     21.878  0.1771E-02  0.4659E+00
     22.087  0.2602E-06  0.4659E+00
     22.295  0.5343E-03  0.4660E+00
     22.504  0.2919E-02  0.4666E+00
     22.712  0.2600E-03  0.4667E+00
     22.921  0.2583E-01  0.4721E+00
     23.129  0.1660E-01  0.4756E+00
     23.338  0.2666E-04  0.4756E+00
     23.546  0.1557E-02  0.4759E+00
     23.755  0.1832E-01  0.4797E+00
     23.963  0.1435E-02  0.4800E+00
     24.172  0.1462E-03  0.4800E+00
     24.381  0.1833E-01  0.4839E+00
     24.589  0.1929E-01  0.4879E+00
     24.798  0.3907E-01  0.4960E+00
     25.006  0.3208E-01  0.5027E+00
     25.215  0.1184E-01  0.5052E+00
     25.423  0.1391E-03  0.5052E+00
     25.632  0.3154E-01  0.5118E+00
     25.840  0.5854E-01  0.5240E+00
     26.049  0.9244E-02  0.5259E+00
     26.258  0.3973E-05  0.5259E+00
     26.466  0.4886E-12  0.5259E+00
     26.675  0.0000E+00  0.5259E+00
     26.883  0.0000E+00  0.5259E+00
     27.092  0.0000E+00  0.5259E+00
     27.300  0.0000E+00  0.5259E+00
     27.509  0.6162E-13  0.5259E+00
     27.717  0.1171E-05  0.5259E+00
     27.926  0.5929E-02  0.5272E+00
     28.134  0.3537E-01  0.5345E+00
     28.343  0.2926E-02  0.5351E+00
     28.552  0.3586E-01  0.5426E+00
     28.760  0.5160E-02  0.5437E+00
     28.969  0.2378E-02  0.5442E+00
     29.177  0.3687E-01  0.5519E+00
     29.386  0.9775E-02  0.5539E+00
     29.594  0.7046E-03  0.5541E+00
     29.803  0.8090E-07  0.5541E+00
     30.011  0.4706E-13  0.5541E+00
     30.220  0.8206E-06  0.5541E+00
     30.428  0.4027E-02  0.5549E+00
     30.637  0.2353E-01  0.5598E+00
     30.846  0.8601E-03  0.5600E+00
     31.054  0.1978E-07  0.5600E+00
     31.263  0.1073E-15  0.5600E+00
     31.471  0.0000E+00  0.5600E+00
     31.680  0.0000E+00  0.5600E+00
     31.888  0.0000E+00  0.5600E+00
     32.097  0.0000E+00  0.5600E+00
     32.305  0.0000E+00  0.5600E+00
     32.514  0.0000E+00  0.5600E+00
     32.723  0.0000E+00  0.5600E+00
     32.931  0.0000E+00  0.5600E+00
     33.140  0.0000E+00  0.5600E+00
     33.348  0.0000E+00  0.5600E+00
