<?xml version="1.0" encoding="ISO-8859-1"?>
<modeling>
 <generator>
  <i name="program" type="string">vasp </i>
  <i name="version" type="string">6.4.3  </i>
  <i name="subversion" type="string">19Mar24 (build Sep 18 2024 11:30:23) complex                          parallel </i>
  <i name="platform" type="string">LinuxIFC </i>
  <i name="date" type="string">2026 07 07 </i>
  <i name="time" type="string">16:46:30 </i>
 </generator>
 <incar>
  <i type="string" name="SYSTEM">HECN</i>
  <i type="int" name="ISTART">     0</i>
  <i type="string" name="PREC">Normal</i>
  <i type="string" name="ALGO">Fast</i>
  <i type="int" name="ICHARG">     2</i>
  <i type="int" name="NELM">    60</i>
  <i type="int" name="IBRION">     2</i>
  <i name="EDIFF">      0.00001000</i>
  <i name="EDIFFG">     -0.01000000</i>
  <i type="int" name="NSW">   100</i>
  <i type="int" name="ISIF">     3</i>
  <i name="ENCUT">    400.00000000</i>
  <i name="POTIM">      0.50000000</i>
  <i type="logical" name="LREAL"> F  </i>
  <i type="int" name="ISMEAR">     0</i>
  <i name="SIGMA">      0.10000000</i>
  <i type="logical" name="LWAVE"> F  </i>
  <i type="logical" name="LCHARG"> F  </i>
 </incar>
 <primitive_cell>
  <structure name="primitive_cell" >
   <crystal>
    <varray name="basis" >
     <v>       1.65030003       1.65030003      -1.65030003 </v>
     <v>      -1.65030003       1.65030003       1.65030003 </v>
     <v>       1.65030003      -1.65030003       1.65030003 </v>
    </varray>
    <i name="volume">     17.97830363 </i>
    <varray name="rec_basis" >
     <v>       0.30297521       0.30297521      -0.00000000 </v>
     <v>      -0.00000000       0.30297521       0.30297521 </v>
     <v>       0.30297521      -0.00000000       0.30297521 </v>
    </varray>
   </crystal>
   <varray name="positions" >
    <v>       0.00000000       0.00000000       0.00000000 </v>
   </varray>
  </structure>
  <varray name="primitive_index" >
   <v type="int" >        1 </v>
  </varray>
 </primitive_cell>
 <kpoints>
  <generation param="Gamma">
   <v type="int" name="divisions">       3        3        3 </v>
   <v name="usershift">      0.00000000       0.00000000       0.00000000 </v>
   <v name="genvec1">      0.33333333       0.00000000       0.00000000 </v>
   <v name="genvec2">      0.00000000       0.33333333       0.00000000 </v>
   <v name="genvec3">      0.00000000       0.00000000       0.33333333 </v>
   <v name="shift">      0.00000000       0.00000000       0.00000000 </v>
  </generation>
  <varray name="kpointlist" >
   <v>       0.00000000       0.00000000       0.00000000 </v>
   <v>       0.33333333       0.00000000       0.00000000 </v>
   <v>       0.33333333       0.33333333       0.00000000 </v>
   <v>       0.33333333       0.33333333       0.33333333 </v>
  </varray>
  <varray name="weights" >
   <v>       0.03703704 </v>
   <v>       0.22222222 </v>
   <v>       0.44444444 </v>
   <v>       0.29629630 </v>
  </varray>
 </kpoints>
 <parameters>
  <separator name="general" >
   <i type="string" name="SYSTEM">HECN</i>
   <i type="logical" name="LCOMPAT"> F  </i>
  </separator>
  <separator name="electronic" >
   <i type="string" name="PREC">normal</i>
   <i name="ENMAX">    400.00000000</i>
   <i name="ENAUG">    355.06700000</i>
   <i name="EDIFF">      0.00001000</i>
   <i type="int" name="IALGO">    68</i>
   <i type="int" name="IWAVPR">    11</i>
   <i type="int" name="NBANDS">    28</i>
   <i type="int" name="NBANDSLOW">    -1</i>
   <i type="int" name="NBANDSHIGH">    -1</i>
   <i name="NELECT">     22.00000000</i>
   <i type="int" name="TURBO">     0</i>
   <i type="int" name="IRESTART">     0</i>
   <i type="int" name="NREBOOT">     0</i>
   <i type="int" name="NMIN">     0</i>
   <i name="EREF">      0.00000000</i>
   <separator name="electronic smearing" >
    <i type="int" name="ISMEAR">     0</i>
    <i name="SIGMA">      0.10000000</i>
    <i name="KSPACING">      0.50000000</i>
    <i type="logical" name="KGAMMA"> T  </i>
    <i type="logical" name="KBLOWUP"> T  </i>
   </separator>
   <separator name="electronic projectors" >
    <i type="logical" name="LREAL"> F  </i>
    <v name="ROPT">      0.00000000</v>
    <i type="int" name="LMAXPAW">  -100</i>
    <i type="int" name="LMAXMIX">     2</i>
    <i type="logical" name="NLSPLINE"> F  </i>
   </separator>
   <separator name="electronic startup" >
    <i type="int" name="ISTART">     0</i>
    <i type="int" name="ICHARG">     2</i>
    <i type="int" name="INIWAV">     1</i>
   </separator>
   <separator name="electronic spin" >
    <i type="int" name="ISPIN">     1</i>
    <i type="logical" name="LNONCOLLINEAR"> F  </i>
    <v name="MAGMOM">      1.00000000      1.00000000</v>
    <i name="NUPDOWN">     -1.00000000</i>
    <i type="logical" name="LSORBIT"> F  </i>
    <v name="SAXIS">      0.00000000      0.00000000      1.00000000</v>
    <i type="logical" name="LSPIRAL"> F  </i>
    <v name="QSPIRAL">      0.00000000      0.00000000      0.00000000</v>
    <i type="logical" name="LZEROZ"> F  </i>
   </separator>
   <separator name="electronic exchange-correlation" >
    <i type="logical" name="LASPH"> F  </i>
   </separator>
   <separator name="electronic convergence" >
    <i type="int" name="NELM">    60</i>
    <i type="int" name="NELMDL">    -5</i>
    <i type="int" name="NELMIN">     2</i>
    <i name="ENINI">    400.00000000</i>
    <separator name="electronic convergence detail" >
     <i type="logical" name="LDIAG"> T  </i>
     <i type="logical" name="LSUBROT"> F  </i>
     <i name="WEIMIN">      0.00100000</i>
     <i name="EBREAK">      0.00000009</i>
     <i name="DEPER">      0.30000000</i>
     <i type="int" name="NRMM">     4</i>
     <i name="TIME">      0.40000000</i>
    </separator>
   </separator>
   <separator name="electronic mixer" >
    <i name="AMIX">      0.40000000</i>
    <i name="BMIX">      1.00000000</i>
    <i name="AMIN">      0.10000000</i>
    <i name="AMIX_MAG">      1.60000000</i>
    <i name="BMIX_MAG">      1.00000000</i>
    <separator name="electronic mixer details" >
     <i type="int" name="IMIX">     4</i>
     <i type="logical" name="MIXFIRST"> F  </i>
     <i type="int" name="MAXMIX">   -45</i>
     <i name="WC">    100.00000000</i>
     <i type="int" name="INIMIX">     1</i>
     <i type="int" name="MIXPRE">     1</i>
     <i type="int" name="MREMOVE">     5</i>
    </separator>
   </separator>
   <separator name="electronic dipolcorrection" >
    <i type="logical" name="LDIPOL"> F  </i>
    <i type="logical" name="LMONO"> F  </i>
    <i type="int" name="IDIPOL">     0</i>
    <i name="EPSILON">      1.00000000</i>
    <v name="DIPOL">   -100.00000000   -100.00000000   -100.00000000</v>
    <i name="EFIELD">      0.00000000</i>
    <i type="logical" name="LVACPOTAV"> F  </i>
   </separator>
  </separator>
  <separator name="grids" >
   <i type="int" name="NGX">    16</i>
   <i type="int" name="NGY">    16</i>
   <i type="int" name="NGZ">    16</i>
   <i type="int" name="NGXF">    32</i>
   <i type="int" name="NGYF">    32</i>
   <i type="int" name="NGZF">    32</i>
   <i type="logical" name="ADDGRID"> F  </i>
  </separator>
  <separator name="ionic" >
   <i type="int" name="NSW">   100</i>
   <i type="int" name="IBRION">     2</i>
   <i type="int" name="MDALGO">     0</i>
   <i type="int" name="ISIF">     3</i>
   <i name="PSTRESS">      0.00000000</i>
   <i name="EDIFFG">     -0.01000000</i>
   <i type="int" name="NFREE">     1</i>
   <i name="POTIM">      0.50000000</i>
   <i name="SMASS">     -3.00000000</i>
   <i name="SCALEE">      1.00000000</i>
  </separator>
  <separator name="ionic md" >
   <i name="TEBEG">      0.00010000</i>
   <i name="TEEND">      0.00010000</i>
   <i type="int" name="NBLOCK">     1</i>
   <i type="int" name="KBLOCK">   100</i>
   <i type="int" name="NPACO">   256</i>
   <i name="APACO">     10.00000000</i>
  </separator>
  <separator name="symmetry" >
   <i type="int" name="ISYM">     2</i>
   <i name="SYMPREC">      0.00001000</i>
  </separator>
  <separator name="dos" >
   <i type="int" name="LORBIT">     0</i>
   <v name="RWIGS">     -1.00000000</v>
   <i type="int" name="NEDOS">   301</i>
   <i name="EMIN">     10.00000000</i>
   <i name="EMAX">    -10.00000000</i>
   <i name="EFERMI">      0.00000000</i>
  </separator>
  <separator name="writing" >
   <i type="int" name="NWRITE">     2</i>
   <i type="logical" name="LWAVE"> F  </i>
   <i type="logical" name="LDOWNSAMPLE"> F  </i>
   <i type="logical" name="LCHARG"> F  </i>
   <i type="logical" name="LPARD"> F  </i>
   <i type="logical" name="LVTOT"> F  </i>
   <i type="logical" name="LVHAR"> F  </i>
   <i type="logical" name="LELF"> F  </i>
   <i type="logical" name="LOPTICS"> F  </i>
   <v name="STM">      0.00000000      0.00000000      0.00000000      0.00000000      0.00000000      0.00000000      0.00000000</v>
  </separator>
  <separator name="performance" >
   <i type="int" name="NPAR">    28</i>
   <i type="int" name="NSIM">     4</i>
   <i type="int" name="NBLK">    -1</i>
   <i type="logical" name="LPLANE"> T  </i>
   <i type="logical" name="LSCALAPACK"> T  </i>
   <i type="logical" name="LSCAAWARE"> T  </i>
   <i type="logical" name="LSCALU"> F  </i>
   <i type="logical" name="LASYNC"> F  </i>
   <i type="logical" name="LORBITALREAL"> F  </i>
  </separator>
  <separator name="miscellaneous" >
   <i type="int" name="IDIOT">     3</i>
   <i type="int" name="PHON_NSTRUCT">    -1</i>
   <i type="logical" name="LMUSIC"> F  </i>
   <v name="POMASS">     92.00000000</v>
   <v name="DARWINR">      0.00000000</v>
   <v name="DARWINV">      1.00000000</v>
   <i type="logical" name="LCORR"> T  </i>
  </separator>
  <i type="logical" name="GGA_COMPAT"> T  </i>
  <i type="logical" name="LBERRY"> F  </i>
  <i type="int" name="ICORELEVEL">     0</i>
  <i type="logical" name="LDAU"> F  </i>
  <i type="int" name="I_CONSTRAINED_M">     0</i>
  <separator name="electronic exchange-correlation" >
   <i type="string" name="GGA    ">PE</i>
   <i type="string" name="XC_C">1</i>
   <i type="int" name="VOSKOWN">     0</i>
   <i type="logical" name="LHFCALC"> F  </i>
   <i type="string" name="PRECFOCK"></i>
   <i type="logical" name="LSYMGRAD"> F  </i>
   <i type="logical" name="LHFONE"> F  </i>
   <i type="logical" name="LRHFCALC"> F  </i>
   <i type="logical" name="LTHOMAS"> F  </i>
   <i type="logical" name="LMODELHF"> F  </i>
   <i type="logical" name="LFOCKACE"> F  </i>
   <i name="ENCUT4O">     -1.00000000</i>
   <i type="int" name="EXXOEP">     0</i>
   <i type="int" name="FOURORBIT">     0</i>
   <i name="AEXX">      0.00000000</i>
   <i name="HFALPHA">      0.00000000</i>
   <i name="MCALPHA">      0.00000000</i>
   <i name="ALDAX">      1.00000000</i>
   <i name="AGGAX">      1.00000000</i>
   <i name="AMGGAX">      1.00000000</i>
   <i name="ALDAC">      1.00000000</i>
   <i name="AGGAC">      1.00000000</i>
   <i name="AMGGAC">      1.00000000</i>
   <i type="int" name="NKREDX">     1</i>
   <i type="int" name="NKREDY">     1</i>
   <i type="int" name="NKREDZ">     1</i>
   <i type="logical" name="SHIFTRED"> F  </i>
   <i type="logical" name="ODDONLY"> F  </i>
   <i type="logical" name="EVENONLY"> F  </i>
   <i type="int" name="LMAXFOCK">     0</i>
   <i type="int" name="NMAXFOCKAE">     0</i>
   <i type="logical" name="LFOCKAEDFT"> F  </i>
   <i name="HFSCREEN">      0.00000000</i>
   <i name="HFSCREENC">      0.00000000</i>
   <i type="int" name="NBANDSGWLOW">     0</i>
  </separator>
  <separator name="vdW DFT" >
   <i type="logical" name="LUSE_VDW"> F  </i>
   <i type="int" name="IVDW_NL">    -1</i>
   <i type="logical" name="LSPIN_VDW"> F  </i>
   <i name="ZAB_VDW">     -0.84910000</i>
   <i name="GAMMA_VDW">      1.39626340</i>
   <i name="ALPHA_VDW">      0.00000000</i>
   <i name="PARAM1">      0.12340000</i>
   <i name="PARAM2">      1.00000000</i>
   <i name="BPARAM">      6.30000000</i>
   <i name="CPARAM">      0.00930000</i>
  </separator>
  <separator name="model GW" >
   <i type="int" name="MODEL_GW">     0</i>
   <i name="MODEL_EPS0">     10.78698218</i>
   <i name="MODEL_ALPHA">      1.00000000</i>
  </separator>
  <separator name="linear response parameters" >
   <i type="logical" name="LEPSILON"> F  </i>
   <i type="logical" name="LRPA"> F  </i>
   <i type="logical" name="LNABLA"> F  </i>
   <i type="logical" name="LVEL"> F  </i>
   <i name="CSHIFT">      0.10000000</i>
   <i name="OMEGAMAX">     -1.00000000</i>
   <i name="DEG_THRESHOLD">      0.00200000</i>
   <i name="RTIME">     -0.10000000</i>
   <i name="WPLASMAI">      0.00000000</i>
   <v name="DFIELD">      0.00000000      0.00000000      0.00000000</v>
   <v name="WPLASMA">      0.00000000      0.00000000      0.00000000      0.00000000      0.00000000      0.00000000      0.00000000      0.00000000      0.00000000</v>
  </separator>
  <separator name="orbital magnetization" >
   <i type="logical" name="NUCIND"> F  </i>
   <v name="MAGPOS">      0.00000000      0.00000000      0.00000000</v>
   <i type="logical" name="LNICSALL"> T  </i>
   <i type="logical" name="ORBITALMAG"> F  </i>
   <i type="logical" name="LMAGBLOCH"> F  </i>
   <i type="logical" name="LCHIMAG"> F  </i>
   <i type="logical" name="LGAUGE"> T  </i>
   <i type="int" name="MAGATOM">     0</i>
   <v name="MAGDIPOL">      0.00000000      0.00000000      0.00000000</v>
   <v name="AVECCONST">      0.00000000      0.00000000      0.00000000</v>
  </separator>
  <separator name="response functions" >
   <i type="logical" name="LALL_IN_ONE"> F  </i>
   <i type="int" name="IALL_IN_ONE">    -1</i>
   <i type="int" name="NBANDS_WAVE">    -1</i>
   <i type="logical" name="LFINITE_TEMPERATURE"> F  </i>
   <i type="logical" name="LADDER"> F  </i>
   <i type="logical" name="LRPAFORCE"> F  </i>
   <i type="logical" name="LFXC"> F  </i>
   <i type="logical" name="LHARTREE"> T  </i>
   <i type="int" name="IBSE">     0</i>
   <v type="int" name="KPOINT">    -1     0     0     0</v>
   <i type="logical" name="LTCTC"> F  </i>
   <i type="logical" name="LTCTE"> F  </i>
   <i type="logical" name="LTETE"> F  </i>
   <i type="logical" name="LTRIPLET"> F  </i>
   <i type="logical" name="LFXCEPS"> F  </i>
   <i type="logical" name="LFXHEG"> F  </i>
   <i type="int" name="NATURALO">     2</i>
   <i type="logical" name="LHOLEGF"> F  </i>
   <i type="logical" name="L2ORDER"> F  </i>
   <i type="logical" name="LDMP1"> F  </i>
   <i type="logical" name="LMP2LT"> F  </i>
   <i type="logical" name="LSMP2LT"> F  </i>
   <i type="logical" name="LGWLF"> F  </i>
   <i name="ENCUTGW">     -1.60000002</i>
   <i name="ENCUTGWSOFT">     -1.60000002</i>
   <i name="ENCUTLF">     -1.00000000</i>
   <i type="logical" name="ESF_SPLINES"> F  </i>
   <i name="ESF_CONV">      0.01000000</i>
   <i type="int" name="ESF_NINTER">    15</i>
   <i type="int" name="LMAXMP2">    -1</i>
   <i name="SCISSOR">      0.00000000</i>
   <i type="int" name="NOMEGA">     0</i>
   <i type="int" name="NOMEGAR">     0</i>
   <i type="int" name="NBANDSGW">    -1</i>
   <i type="int" name="NBANDSO">    -1</i>
   <i type="int" name="NBANDSV">    -1</i>
   <i type="int" name="NELMGW">     1</i>
   <i type="int" name="NELMHF">     1</i>
   <i type="int" name="DIM">     3</i>
   <i type="int" name="IESPILON">     4</i>
   <i type="int" name="ANTIRES">     0</i>
   <i name="OMEGAMAX">    -30.00000000</i>
   <i name="OMEGAMIN">    -30.00000000</i>
   <i name="OMEGATL">   -200.00000000</i>
   <i type="int" name="OMEGAGRID">     0</i>
   <i name="CSHIFT">     -0.10000000</i>
   <i type="logical" name="LSELFENERGY"> F  </i>
   <i type="logical" name="LSPECTRAL"> F  </i>
   <i type="logical" name="LSPECTRALGW"> F  </i>
   <i type="logical" name="LSINGLES"> F  </i>
   <i type="logical" name="LFERMIGW"> F  </i>
   <i type="logical" name="ODDONLYGW"> F  </i>
   <i type="logical" name="EVENONLYGW"> F  </i>
   <i type="int" name="NKREDLFX">     1</i>
   <i type="int" name="NKREDLFY">     1</i>
   <i type="int" name="NKREDLFZ">     1</i>
   <i type="int" name="MAXMEM">  2800</i>
   <i type="int" name="TELESCOPE">     0</i>
   <i type="int" name="NTAUPAR">    -1</i>
   <i type="int" name="NOMEGAPAR">    -1</i>
   <i name="DAMP_NEWTON">      0.80000001</i>
   <i name="LAMBDA">      1.00000000</i>
  </separator>
  <separator name="External order field" >
   <i name="OFIELD_KAPPA">      0.00000000</i>
   <v name="OFIELD_K">      0.00000000      0.00000000      0.00000000</v>
   <i name="OFIELD_Q6_NEAR">      0.00000000</i>
   <i name="OFIELD_Q6_FAR">      0.00000000</i>
   <i name="OFIELD_A">      0.00000000</i>
  </separator>
  <separator name="optional k-points parameters" >
   <i type="int" name="KPOINTS_OPT_MODE">     1</i>
   <i type="logical" name="LKPOINTS_OPT"> F  </i>
  </separator>
  <separator name="solvation model" >
   <i type="logical" name="LSOL"> F  </i>
  </separator>
 </parameters>
 <atominfo>
  <atoms>       2 </atoms>
  <types>       1 </types>
  <array name="atoms" >
   <dimension dim="1">ion</dimension>
   <field type="string">element</field>
   <field type="int">atomtype</field>
   <set>
    <rc><c>Nb</c><c>   1</c></rc>
    <rc><c>Nb</c><c>   1</c></rc>
   </set>
  </array>
  <array name="atomtypes" >
   <dimension dim="1">type</dimension>
   <field type="int">atomspertype</field>
   <field type="string">element</field>
   <field>mass</field>
   <field>valence</field>
   <field type="string">pseudopotential</field>
   <set>
    <rc><c>   2</c><c>Nb</c><c>     92.00000000</c><c>     11.00000000</c><c> PAW_PBE Nb_pv 08Apr2002                </c></rc>
   </set>
  </array>
 </atominfo>
 <structure name="initialpos" >
  <crystal>
   <varray name="basis" >
    <v>       3.30060005       0.00000000       0.00000000 </v>
    <v>       0.00000000       3.30060005       0.00000000 </v>
    <v>       0.00000000       0.00000000       3.30060005 </v>
   </varray>
   <i name="volume">     35.95660726 </i>
   <varray name="rec_basis" >
    <v>       0.30297521       0.00000000       0.00000000 </v>
    <v>       0.00000000       0.30297521       0.00000000 </v>
    <v>       0.00000000       0.00000000       0.30297521 </v>
   </varray>
  </crystal>
  <varray name="positions" >
   <v>       0.00000000       0.00000000       0.00000000 </v>
   <v>       0.50000000       0.50000000       0.50000000 </v>
  </varray>
 </structure>
 <calculation>
  <scstep>
   <time name="dav">    0.04    0.04</time>
   <time name="total">    0.05    0.07</time>
   <energy>
    <i name="alphaZ">    251.80697874 </i>
    <i name="ewald">  -1921.13754399 </i>
    <i name="hartreedc">   -274.85687932 </i>
    <i name="XCdc">     52.72053921 </i>
    <i name="pawpsdc">   1417.44129084 </i>
    <i name="pawaedc">  -1385.53299508 </i>
    <i name="eentropy">     -0.00024943 </i>
    <i name="bandstr">   -194.68310132 </i>
    <i name="atom">   2086.77737019 </i>
    <i name="e_fr_energy">     32.53540983 </i>
    <i name="e_wo_entrp">     32.53565927 </i>
    <i name="e_0_energy">     32.53553455 </i>
   </energy>
  </scstep>
  <scstep>
   <time name="dav">    0.04    0.35</time>
   <time name="total">    0.04    0.35</time>
   <energy>
    <i name="e_fr_energy">    -20.69954427 </i>
    <i name="e_wo_entrp">    -20.67446918 </i>
    <i name="e_0_energy">    -20.68700672 </i>
   </energy>
  </scstep>
  <scstep>
   <time name="dav">    0.04    0.04</time>
   <time name="total">    0.04    0.04</time>
   <energy>
    <i name="e_fr_energy">    -20.99217852 </i>
    <i name="e_wo_entrp">    -20.96710342 </i>
    <i name="e_0_energy">    -20.97964097 </i>
   </energy>
  </scstep>
  <scstep>
   <time name="dav">    0.05    0.05</time>
   <time name="total">    0.05    0.05</time>
   <energy>
    <i name="e_fr_energy">    -20.99300882 </i>
    <i name="e_wo_entrp">    -20.96793371 </i>
    <i name="e_0_energy">    -20.98047126 </i>
   </energy>
  </scstep>
  <scstep>
   <time name="dav">    0.04    0.04</time>
   <time name="total">    0.04    0.05</time>
   <energy>
    <i name="e_fr_energy">    -20.99300883 </i>
    <i name="e_wo_entrp">    -20.96793372 </i>
    <i name="e_0_energy">    -20.98047127 </i>
   </energy>
  </scstep>
  <scstep>
   <time name="diag">    0.02    0.02</time>
   <time name="diis">    0.00    0.00</time>
   <time name="orth">    0.00    0.00</time>
   <time name="total">    0.03    0.04</time>
   <energy>
    <i name="e_fr_energy">    -20.10657121 </i>
    <i name="e_wo_entrp">    -20.07871124 </i>
    <i name="e_0_energy">    -20.09264122 </i>
   </energy>
  </scstep>
  <scstep>
   <time name="diag">    0.01    0.01</time>
   <time name="diis">    0.00    0.00</time>
   <time name="orth">    0.00    0.00</time>
   <time name="total">    0.02    0.02</time>
   <energy>
    <i name="e_fr_energy">    -19.92089089 </i>
    <i name="e_wo_entrp">    -19.88657535 </i>
    <i name="e_0_energy">    -19.90373312 </i>
   </energy>
  </scstep>
  <scstep>
   <time name="diag">    0.01    0.01</time>
   <time name="diis">    0.00    0.00</time>
   <time name="orth">    0.00    0.00</time>
   <time name="total">    0.01    0.01</time>
   <energy>
    <i name="e_fr_energy">    -19.90605173 </i>
    <i name="e_wo_entrp">    -19.86723981 </i>
    <i name="e_0_energy">    -19.88664577 </i>
   </energy>
  </scstep>
  <scstep>
   <time name="diag">    0.01    0.01</time>
   <time name="diis">    0.00    0.00</time>
   <time name="orth">    0.00    0.00</time>
   <time name="total">    0.01    0.01</time>
   <energy>
    <i name="e_fr_energy">    -19.90497310 </i>
    <i name="e_wo_entrp">    -19.86610455 </i>
    <i name="e_0_energy">    -19.88553883 </i>
   </energy>
  </scstep>
  <scstep>
   <time name="diag">    0.01    0.01</time>
   <time name="diis">    0.00    0.00</time>
   <time name="orth">    0.00    0.00</time>
   <time name="total">    0.01    0.01</time>
   <energy>
    <i name="e_fr_energy">    -19.90509007 </i>
    <i name="e_wo_entrp">    -19.86644372 </i>
    <i name="e_0_energy">    -19.88576689 </i>
   </energy>
  </scstep>
  <scstep>
   <time name="diag">    0.01    0.01</time>
   <time name="diis">    0.00    0.00</time>
   <time name="orth">    0.00    0.00</time>
   <time name="total">    0.01    0.01</time>
   <energy>
    <i name="e_fr_energy">    -19.90510498 </i>
    <i name="e_wo_entrp">    -19.86614820 </i>
    <i name="e_0_energy">    -19.88562659 </i>
   </energy>
  </scstep>
  <scstep>
   <time name="diag">    0.01    0.01</time>
   <time name="diis">    0.00    0.00</time>
   <time name="orth">    0.00    0.00</time>
   <time name="total">    0.01    0.01</time>
   <energy>
    <i name="e_fr_energy">    -19.90507628 </i>
    <i name="e_wo_entrp">    -19.86627798 </i>
    <i name="e_0_energy">    -19.88567713 </i>
   </energy>
  </scstep>
  <scstep>
   <time name="diag">    0.01    0.01</time>
   <time name="diis">    0.00    0.00</time>
   <time name="orth">    0.00    0.00</time>
   <time name="total">    0.01    0.01</time>
   <energy>
    <i name="alphaZ">    251.80697874 </i>
    <i name="ewald">  -1921.13754399 </i>
    <i name="hartreedc">   -242.09484516 </i>
    <i name="XCdc">     51.08234702 </i>
    <i name="pawpsdc">   1522.69812205 </i>
    <i name="pawaedc">  -1497.97960108 </i>
    <i name="eentropy">     -0.03877969 </i>
    <i name="bandstr">   -271.01912466 </i>
    <i name="atom">   2086.77737019 </i>
    <i name="e_fr_energy">    -19.90507658 </i>
    <i name="e_wo_entrp">    -19.86629689 </i>
    <i name="e_0_energy">    -19.88568673 </i>
   </energy>
  </scstep>
  <structure>
   <crystal>
    <varray name="basis" >
     <v>       3.30060005       0.00000000       0.00000000 </v>
     <v>       0.00000000       3.30060005       0.00000000 </v>
     <v>       0.00000000       0.00000000       3.30060005 </v>
    </varray>
    <i name="volume">     35.95660726 </i>
    <varray name="rec_basis" >
     <v>       0.30297521       0.00000000       0.00000000 </v>
     <v>       0.00000000       0.30297521       0.00000000 </v>
     <v>       0.00000000       0.00000000       0.30297521 </v>
    </varray>
   </crystal>
   <varray name="positions" >
    <v>       0.00000000       0.00000000       0.00000000 </v>
    <v>       0.50000000       0.50000000       0.50000000 </v>
   </varray>
  </structure>
  <varray name="forces" >
   <v>      -0.00000000      -0.00000000      -0.00000000 </v>
   <v>       0.00000000       0.00000000       0.00000000 </v>
  </varray>
  <varray name="stress" >
   <v>      78.84798638       0.00000000      -0.00000000 </v>
   <v>      -0.00000000      78.84798638      -0.00000000 </v>
   <v>      -0.00000000       0.00000000      78.84798638 </v>
  </varray>
  <energy>
   <i name="e_fr_energy">    -19.90507658 </i>
   <i name="e_wo_entrp">    -19.86629689 </i>
   <i name="e_0_energy">    -19.88568673 </i>
  </energy>
  <time name="totalsc">    0.37    0.74</time>
 </calculation>
 <calculation>
  <scstep>
   <time name="dav">    0.02    0.02</time>
   <time name="total">    0.03    0.03</time>
   <energy>
    <i name="alphaZ">    222.13156214 </i>
    <i name="ewald">  -1842.49349044 </i>
    <i name="hartreedc">   -232.18683421 </i>
    <i name="XCdc">     48.21474838 </i>
    <i name="pawpsdc">   1522.69609727 </i>
    <i name="pawaedc">  -1497.97823276 </i>
    <i name="eentropy">     -0.02407497 </i>
    <i name="bandstr">   -329.42716666 </i>
    <i name="atom">   2086.77737019 </i>
    <i name="e_fr_energy">    -22.29002106 </i>
    <i name="e_wo_entrp">    -22.26594609 </i>
    <i name="e_0_energy">    -22.27798357 </i>
   </energy>
  </scstep>
  <scstep>
   <time name="diag">    0.01    0.01</time>
   <time name="diis">    0.00    0.00</time>
   <time name="orth">    0.00    0.00</time>
   <time name="total">    0.01    0.01</time>
   <energy>
    <i name="e_fr_energy">    -20.01184524 </i>
    <i name="e_wo_entrp">    -19.97813803 </i>
    <i name="e_0_energy">    -19.99499163 </i>
   </energy>
  </scstep>
  <scstep>
   <time name="diag">    0.01    0.01</time>
   <time name="diis">    0.00    0.00</time>
   <time name="orth">    0.00    0.00</time>
   <time name="total">    0.01    0.01</time>
   <energy>
    <i name="e_fr_energy">    -19.82270742 </i>
    <i name="e_wo_entrp">    -19.79576493 </i>
    <i name="e_0_energy">    -19.80923617 </i>
   </energy>
  </scstep>
  <scstep>
   <time name="diag">    0.01    0.01</time>
   <time name="diis">    0.00    0.00</time>
   <time name="orth">    0.00    0.00</time>
   <time name="total">    0.01    0.01</time>
   <energy>
    <i name="e_fr_energy">    -19.82606226 </i>
    <i name="e_wo_entrp">    -19.79764868 </i>
    <i name="e_0_energy">    -19.81185547 </i>
   </energy>
  </scstep>
  <scstep>
   <time name="diag">    0.01    0.01</time>
   <time name="diis">    0.00    0.00</time>
   <time name="orth">    0.00    0.00</time>
   <time name="total">    0.01    0.01</time>
   <energy>
    <i name="e_fr_energy">    -19.83460774 </i>
    <i name="e_wo_entrp">    -19.80337037 </i>
    <i name="e_0_energy">    -19.81898906 </i>
   </energy>
  </scstep>
  <scstep>
   <time name="diag">    0.01    0.01</time>
   <time name="diis">    0.00    0.00</time>
   <time name="orth">    0.00    0.00</time>
   <time name="total">    0.01    0.01</time>
   <energy>
    <i name="e_fr_energy">    -19.83438264 </i>
    <i name="e_wo_entrp">    -19.80382799 </i>
    <i name="e_0_energy">    -19.81910531 </i>
   </energy>
  </scstep>
  <scstep>
   <time name="diag">    0.01    0.01</time>
   <time name="diis">    0.00    0.00</time>
   <time name="orth">    0.00    0.00</time>
   <time name="total">    0.01    0.01</time>
   <energy>
    <i name="e_fr_energy">    -19.83425456 </i>
    <i name="e_wo_entrp">    -19.80421612 </i>
    <i name="e_0_energy">    -19.81923534 </i>
   </energy>
  </scstep>
  <scstep>
   <time name="diag">    0.01    0.01</time>
   <time name="diis">    0.00    0.00</time>
   <time name="orth">    0.00    0.00</time>
   <time name="total">    0.01    0.01</time>
   <energy>
    <i name="e_fr_energy">    -19.83426593 </i>
    <i name="e_wo_entrp">    -19.80415873 </i>
    <i name="e_0_energy">    -19.81921233 </i>
   </energy>
  </scstep>
  <scstep>
   <time name="diag">    0.01    0.01</time>
   <time name="diis">    0.00    0.00</time>
   <time name="orth">    0.00    0.00</time>
   <time name="total">    0.01    0.01</time>
   <energy>
    <i name="alphaZ">    222.13156214 </i>
    <i name="ewald">  -1842.49349044 </i>
    <i name="hartreedc">   -266.67766908 </i>
    <i name="XCdc">     49.83081850 </i>
    <i name="pawpsdc">   1448.98926869 </i>
    <i name="pawaedc">  -1424.01410747 </i>
    <i name="eentropy">     -0.03009103 </i>
    <i name="bandstr">   -294.34792824 </i>
    <i name="atom">   2086.77737019 </i>
    <i name="e_fr_energy">    -19.83426676 </i>
    <i name="e_wo_entrp">    -19.80417573 </i>
    <i name="e_0_energy">    -19.81922124 </i>
   </energy>
  </scstep>
  <structure>
   <crystal>
    <varray name="basis" >
     <v>       3.44148118       0.00000000      -0.00000000 </v>
     <v>      -0.00000000       3.44148118      -0.00000000 </v>
     <v>      -0.00000000       0.00000000       3.44148118 </v>
    </varray>
    <i name="volume">     40.76018983 </i>
    <varray name="rec_basis" >
     <v>       0.29057256       0.00000000       0.00000000 </v>
     <v>      -0.00000000       0.29057256      -0.00000000 </v>
     <v>       0.00000000       0.00000000       0.29057256 </v>
    </varray>
   </crystal>
   <varray name="positions" >
    <v>       1.00000000       1.00000000       1.00000000 </v>
    <v>       0.50000000       0.50000000       0.50000000 </v>
   </varray>
  </structure>
  <varray name="forces" >
   <v>       0.00000000       0.00000000       0.00000000 </v>
   <v>      -0.00000000      -0.00000000      -0.00000000 </v>
  </varray>
  <varray name="stress" >
   <v>    -113.31438647      -0.00000000      -0.00000000 </v>
   <v>       0.00000000    -113.31438647      -0.00000000 </v>
   <v>       0.00000000       0.00000000    -113.31438647 </v>
  </varray>
  <energy>
   <i name="e_fr_energy">    -19.83426676 </i>
   <i name="e_wo_entrp">    -19.80417573 </i>
   <i name="e_0_energy">    -19.81922124 </i>
  </energy>
  <time name="totalsc">    0.16    0.16</time>
 </calculation>
 <calculation>
  <scstep>
   <time name="dav">    0.03    0.03</time>
   <time name="total">    0.03    0.03</time>
   <energy>
    <i name="alphaZ">    239.89702064 </i>
    <i name="ewald">  -1890.35842274 </i>
    <i name="hartreedc">   -273.59788220 </i>
    <i name="XCdc">     51.65134844 </i>
    <i name="pawpsdc">   1448.67224246 </i>
    <i name="pawaedc">  -1423.69345565 </i>
    <i name="eentropy">     -0.02507509 </i>
    <i name="bandstr">   -260.16706960 </i>
    <i name="atom">   2086.77737019 </i>
    <i name="e_fr_energy">    -20.84392355 </i>
    <i name="e_wo_entrp">    -20.81884846 </i>
    <i name="e_0_energy">    -20.83138600 </i>
   </energy>
  </scstep>
  <scstep>
   <time name="diag">    0.01    0.01</time>
   <time name="diis">    0.00    0.00</time>
   <time name="orth">    0.00    0.00</time>
   <time name="total">    0.01    0.01</time>
   <energy>
    <i name="e_fr_energy">    -20.05522239 </i>
    <i name="e_wo_entrp">    -20.02931508 </i>
    <i name="e_0_energy">    -20.04226873 </i>
   </energy>
  </scstep>
  <scstep>
   <time name="diag">    0.01    0.01</time>
   <time name="diis">    0.00    0.00</time>
   <time name="orth">    0.00    0.00</time>
   <time name="total">    0.01    0.01</time>
   <energy>
    <i name="e_fr_energy">    -19.94705173 </i>
    <i name="e_wo_entrp">    -19.90646299 </i>
    <i name="e_0_energy">    -19.92675736 </i>
   </energy>
  </scstep>
  <scstep>
   <time name="diag">    0.01    0.01</time>
   <time name="diis">    0.00    0.00</time>
   <time name="orth">    0.00    0.00</time>
   <time name="total">    0.01    0.01</time>
   <energy>
    <i name="e_fr_energy">    -19.96116371 </i>
    <i name="e_wo_entrp">    -19.92095708 </i>
    <i name="e_0_energy">    -19.94106039 </i>
   </energy>
  </scstep>
  <scstep>
   <time name="diag">    0.01    0.01</time>
   <time name="diis">    0.00    0.00</time>
   <time name="orth">    0.00    0.00</time>
   <time name="total">    0.01    0.01</time>
   <energy>
    <i name="e_fr_energy">    -19.94739567 </i>
    <i name="e_wo_entrp">    -19.90706405 </i>
    <i name="e_0_energy">    -19.92722986 </i>
   </energy>
  </scstep>
  <scstep>
   <time name="diag">    0.01    0.01</time>
   <time name="diis">    0.00    0.00</time>
   <time name="orth">    0.00    0.00</time>
   <time name="total">    0.01    0.01</time>
   <energy>
    <i name="e_fr_energy">    -19.94698029 </i>
    <i name="e_wo_entrp">    -19.90712015 </i>
    <i name="e_0_energy">    -19.92705022 </i>
   </energy>
  </scstep>
  <scstep>
   <time name="diag">    0.01    0.01</time>
   <time name="diis">    0.00    0.00</time>
   <time name="orth">    0.00    0.00</time>
   <time name="total">    0.01    0.01</time>
   <energy>
    <i name="e_fr_energy">    -19.94702877 </i>
    <i name="e_wo_entrp">    -19.90720952 </i>
    <i name="e_0_energy">    -19.92711914 </i>
   </energy>
  </scstep>
  <scstep>
   <time name="diag">    0.01    0.01</time>
   <time name="diis">    0.00    0.00</time>
   <time name="orth">    0.00    0.00</time>
   <time name="total">    0.01    0.01</time>
   <energy>
    <i name="e_fr_energy">    -19.94704136 </i>
    <i name="e_wo_entrp">    -19.90723214 </i>
    <i name="e_0_energy">    -19.92713675 </i>
   </energy>
  </scstep>
  <scstep>
   <time name="diag">    0.01    0.01</time>
   <time name="diis">    0.00    0.00</time>
   <time name="orth">    0.00    0.00</time>
   <time name="total">    0.01    0.01</time>
   <energy>
    <i name="alphaZ">    239.89702064 </i>
    <i name="ewald">  -1890.35842274 </i>
    <i name="hartreedc">   -251.09597945 </i>
    <i name="XCdc">     50.56431332 </i>
    <i name="pawpsdc">   1490.86733765 </i>
    <i name="pawaedc">  -1466.17062678 </i>
    <i name="eentropy">     -0.03982731 </i>
    <i name="bandstr">   -280.38822909 </i>
    <i name="atom">   2086.77737019 </i>
    <i name="e_fr_energy">    -19.94704356 </i>
    <i name="e_wo_entrp">    -19.90721625 </i>
    <i name="e_0_energy">    -19.92712991 </i>
   </energy>
  </scstep>
  <structure>
   <crystal>
    <varray name="basis" >
     <v>       3.35434096       0.00000000      -0.00000000 </v>
     <v>      -0.00000000       3.35434096      -0.00000000 </v>
     <v>      -0.00000000       0.00000000       3.35434096 </v>
    </varray>
    <i name="volume">     37.74171357 </i>
    <varray name="rec_basis" >
     <v>       0.29812116       0.00000000       0.00000000 </v>
     <v>      -0.00000000       0.29812116      -0.00000000 </v>
     <v>       0.00000000       0.00000000       0.29812116 </v>
    </varray>
   </crystal>
   <varray name="positions" >
    <v>       0.00000000       0.00000000       0.00000000 </v>
    <v>       0.50000000       0.50000000       0.50000000 </v>
   </varray>
  </structure>
  <varray name="forces" >
   <v>       0.00000000       0.00000000       0.00000000 </v>
   <v>      -0.00000000      -0.00000000      -0.00000000 </v>
  </varray>
  <varray name="stress" >
   <v>      -1.65677177      -0.00000000       0.00000000 </v>
   <v>       0.00000000      -1.65677177      -0.00000000 </v>
   <v>      -0.00000000       0.00000000      -1.65677177 </v>
  </varray>
  <energy>
   <i name="e_fr_energy">    -19.94704356 </i>
   <i name="e_wo_entrp">    -19.90721625 </i>
   <i name="e_0_energy">    -19.92712991 </i>
  </energy>
  <time name="totalsc">    0.16    0.17</time>
 </calculation>
 <calculation>
  <scstep>
   <time name="dav">    0.05    0.05</time>
   <time name="total">    0.06    0.06</time>
   <energy>
    <i name="alphaZ">    240.14601229 </i>
    <i name="ewald">  -1891.01220425 </i>
    <i name="hartreedc">   -251.17018543 </i>
    <i name="XCdc">     50.58799288 </i>
    <i name="pawpsdc">   1490.68174946 </i>
    <i name="pawaedc">  -1465.98412957 </i>
    <i name="eentropy">     -0.03961813 </i>
    <i name="bandstr">   -279.93421454 </i>
    <i name="atom">   2086.77737019 </i>
    <i name="e_fr_energy">    -19.94722710 </i>
    <i name="e_wo_entrp">    -19.90760897 </i>
    <i name="e_0_energy">    -19.92741804 </i>
   </energy>
  </scstep>
  <scstep>
   <time name="diag">    0.01    0.01</time>
   <time name="diis">    0.00    0.00</time>
   <time name="orth">    0.00    0.00</time>
   <time name="total">    0.01    0.01</time>
   <energy>
    <i name="e_fr_energy">    -19.94706607 </i>
    <i name="e_wo_entrp">    -19.90722163 </i>
    <i name="e_0_energy">    -19.92714385 </i>
   </energy>
  </scstep>
  <scstep>
   <time name="diag">    0.01    0.01</time>
   <time name="diis">    0.00    0.00</time>
   <time name="orth">    0.00    0.00</time>
   <time name="total">    0.01    0.01</time>
   <energy>
    <i name="alphaZ">    240.14601229 </i>
    <i name="ewald">  -1891.01220425 </i>
    <i name="hartreedc">   -250.85823036 </i>
    <i name="XCdc">     50.57301750 </i>
    <i name="pawpsdc">   1490.87214108 </i>
    <i name="pawaedc">  -1466.19043617 </i>
    <i name="eentropy">     -0.03993060 </i>
    <i name="bandstr">   -280.21479760 </i>
    <i name="atom">   2086.77737019 </i>
    <i name="e_fr_energy">    -19.94705793 </i>
    <i name="e_wo_entrp">    -19.90712733 </i>
    <i name="e_0_energy">    -19.92709263 </i>
   </energy>
  </scstep>
  <structure>
   <crystal>
    <varray name="basis" >
     <v>       3.35318126       0.00000000      -0.00000000 </v>
     <v>      -0.00000000       3.35318126      -0.00000000 </v>
     <v>      -0.00000000       0.00000000       3.35318126 </v>
    </varray>
    <i name="volume">     37.70258166 </i>
    <varray name="rec_basis" >
     <v>       0.29822426       0.00000000       0.00000000 </v>
     <v>      -0.00000000       0.29822426      -0.00000000 </v>
     <v>       0.00000000       0.00000000       0.29822426 </v>
    </varray>
   </crystal>
   <varray name="positions" >
    <v>       0.00000000       0.00000000       0.00000000 </v>
    <v>       0.50000000       0.50000000       0.50000000 </v>
   </varray>
  </structure>
  <varray name="forces" >
   <v>       0.00000000      -0.00000000      -0.00000000 </v>
   <v>      -0.00000000       0.00000000       0.00000000 </v>
  </varray>
  <varray name="stress" >
   <v>      -0.35028038       0.00000000      -0.00000000 </v>
   <v>      -0.00000000      -0.35028038       0.00000000 </v>
   <v>      -0.00000000      -0.00000000      -0.35028038 </v>
  </varray>
  <energy>
   <i name="e_fr_energy">    -19.94705793 </i>
   <i name="e_wo_entrp">    -19.90712733 </i>
   <i name="e_0_energy">    -19.92709263 </i>
  </energy>
  <time name="totalsc">    0.10    0.10</time>
  <eigenvalues>
   <array>
    <dimension dim="1">band</dimension>
    <dimension dim="2">kpoint</dimension>
    <dimension dim="3">spin</dimension>
    <field>eigene</field>
    <field>occ</field>
    <set>
     <set comment="spin 1">
      <set comment="kpoint 1">
       <r>  -26.0987    1.0000 </r>
       <r>  -26.0987    1.0000 </r>
       <r>  -26.0987    1.0000 </r>
       <r>  -25.2945    1.0000 </r>
       <r>  -25.2945    1.0000 </r>
       <r>  -25.2945    1.0000 </r>
       <r>   -1.2247    1.0000 </r>
       <r>    1.1299    1.0000 </r>
       <r>    1.1299    1.0000 </r>
       <r>    4.9478    0.3326 </r>
       <r>    4.9478    0.3326 </r>
       <r>    4.9478    0.3326 </r>
       <r>    7.7040    0.0000 </r>
       <r>    7.7040    0.0000 </r>
       <r>    9.8518    0.0000 </r>
       <r>    9.8518    0.0000 </r>
       <r>    9.8518    0.0000 </r>
       <r>   13.5640    0.0000 </r>
       <r>   13.5640    0.0000 </r>
       <r>   13.5640    0.0000 </r>
       <r>   19.9287    0.0000 </r>
       <r>   19.9287    0.0000 </r>
       <r>   19.9287    0.0000 </r>
       <r>   22.3682    0.0000 </r>
       <r>   24.5675    0.0000 </r>
       <r>   24.5675    0.0000 </r>
       <r>   29.2948    0.0000 </r>
       <r>   29.2948    0.0000 </r>
      </set>
      <set comment="kpoint 2">
       <r>  -26.0653    1.0000 </r>
       <r>  -25.8922    1.0000 </r>
       <r>  -25.8922    1.0000 </r>
       <r>  -25.6712    1.0000 </r>
       <r>  -25.4894    1.0000 </r>
       <r>  -25.4894    1.0000 </r>
       <r>    0.6775    1.0000 </r>
       <r>    2.3076    1.0000 </r>
       <r>    2.3376    1.0000 </r>
       <r>    5.0012    0.1175 </r>
       <r>    5.0012    0.1175 </r>
       <r>    5.3884    0.0000 </r>
       <r>    5.9245    0.0000 </r>
       <r>    6.7177    0.0000 </r>
       <r>    6.7177    0.0000 </r>
       <r>    8.3050    0.0000 </r>
       <r>    8.5540    0.0000 </r>
       <r>   10.0948    0.0000 </r>
       <r>   19.0051    0.0000 </r>
       <r>   19.0051    0.0000 </r>
       <r>   20.5979    0.0000 </r>
       <r>   21.3314    0.0000 </r>
       <r>   21.5698    0.0000 </r>
       <r>   22.9010    0.0000 </r>
       <r>   22.9010    0.0000 </r>
       <r>   23.6491    0.0000 </r>
       <r>   29.0812    0.0000 </r>
       <r>   29.0812    0.0000 </r>
      </set>
      <set comment="kpoint 3">
       <r>  -26.3725    1.0000 </r>
       <r>  -26.1859    1.0000 </r>
       <r>  -25.7776    1.0000 </r>
       <r>  -25.5755    1.0000 </r>
       <r>  -25.5119    1.0000 </r>
       <r>  -25.3013    1.0000 </r>
       <r>    1.1431    1.0000 </r>
       <r>    1.7818    1.0000 </r>
       <r>    3.4524    1.0000 </r>
       <r>    4.1356    1.0000 </r>
       <r>    4.2000    1.0000 </r>
       <r>    4.9544    0.2993 </r>
       <r>    6.4140    0.0000 </r>
       <r>    7.5093    0.0000 </r>
       <r>    8.0560    0.0000 </r>
       <r>    8.6000    0.0000 </r>
       <r>   10.3737    0.0000 </r>
       <r>   10.9769    0.0000 </r>
       <r>   15.5886    0.0000 </r>
       <r>   18.3289    0.0000 </r>
       <r>   18.5761    0.0000 </r>
       <r>   19.5241    0.0000 </r>
       <r>   19.8066    0.0000 </r>
       <r>   24.6735    0.0000 </r>
       <r>   24.9646    0.0000 </r>
       <r>   25.7847    0.0000 </r>
       <r>   28.0026    0.0000 </r>
       <r>   28.4688    0.0000 </r>
      </set>
      <set comment="kpoint 4">
       <r>  -26.2183    1.0000 </r>
       <r>  -26.1038    1.0000 </r>
       <r>  -26.1038    1.0000 </r>
       <r>  -25.5674    1.0000 </r>
       <r>  -25.5674    1.0000 </r>
       <r>  -25.4427    1.0000 </r>
       <r>    2.5561    1.0000 </r>
       <r>    2.9667    1.0000 </r>
       <r>    3.2111    1.0000 </r>
       <r>    3.2111    1.0000 </r>
       <r>    3.7583    1.0000 </r>
       <r>    3.7583    1.0000 </r>
       <r>    8.0991    0.0000 </r>
       <r>    8.0991    0.0000 </r>
       <r>    8.1414    0.0000 </r>
       <r>    8.1414    0.0000 </r>
       <r>   11.5607    0.0000 </r>
       <r>   14.5085    0.0000 </r>
       <r>   15.1559    0.0000 </r>
       <r>   15.1559    0.0000 </r>
       <r>   17.5381    0.0000 </r>
       <r>   18.5116    0.0000 </r>
       <r>   18.5116    0.0000 </r>
       <r>   21.4733    0.0000 </r>
       <r>   24.3535    0.0000 </r>
       <r>   25.6237    0.0000 </r>
       <r>   25.6237    0.0000 </r>
       <r>   30.5043    0.0000 </r>
      </set>
     </set>
    </set>
   </array>
  </eigenvalues>
  <separator name="orbital magnetization" >
   <v name="MAGDIPOLOUT">      0.00000000      0.00000000      0.00000000</v>
  </separator>
  <dos>
   <i name="efermi">      4.91721249 </i>
   <total>
    <array>
     <dimension dim="1">gridpoints</dimension>
     <dimension dim="2">spin</dimension>
     <field>energy</field>
     <field>total</field>
     <field>integrated</field>
     <set>
      <set comment="spin 1">
       <r>   -29.2163     0.0000     0.0000 </r>
       <r>   -29.0078     0.0000     0.0000 </r>
       <r>   -28.7992     0.0000     0.0000 </r>
       <r>   -28.5907     0.0000     0.0000 </r>
       <r>   -28.3821     0.0000     0.0000 </r>
       <r>   -28.1736     0.0000     0.0000 </r>
       <r>   -27.9651     0.0000     0.0000 </r>
       <r>   -27.7565     0.0000     0.0000 </r>
       <r>   -27.5480     0.0000     0.0000 </r>
       <r>   -27.3394     0.0000     0.0000 </r>
       <r>   -27.1309     0.0000     0.0000 </r>
       <r>   -26.9223     0.0000     0.0000 </r>
       <r>   -26.7138     0.0000     0.0000 </r>
       <r>   -26.5052     0.1291     0.0269 </r>
       <r>   -26.2967     4.1812     0.8989 </r>
       <r>   -26.0881    11.3507     3.2661 </r>
       <r>   -25.8796     7.3257     4.7938 </r>
       <r>   -25.6710     7.4246     6.3422 </r>
       <r>   -25.4625    16.9659     9.8804 </r>
       <r>   -25.2539     8.7779    11.7110 </r>
       <r>   -25.0454     1.3847    11.9998 </r>
       <r>   -24.8368     0.0009    12.0000 </r>
       <r>   -24.6283     0.0000    12.0000 </r>
       <r>   -24.4197     0.0000    12.0000 </r>
       <r>   -24.2112     0.0000    12.0000 </r>
       <r>   -24.0026     0.0000    12.0000 </r>
       <r>   -23.7941     0.0000    12.0000 </r>
       <r>   -23.5855     0.0000    12.0000 </r>
       <r>   -23.3770     0.0000    12.0000 </r>
       <r>   -23.1684     0.0000    12.0000 </r>
       <r>   -22.9599     0.0000    12.0000 </r>
       <r>   -22.7513     0.0000    12.0000 </r>
       <r>   -22.5428     0.0000    12.0000 </r>
       <r>   -22.3342     0.0000    12.0000 </r>
       <r>   -22.1257     0.0000    12.0000 </r>
       <r>   -21.9171     0.0000    12.0000 </r>
       <r>   -21.7086     0.0000    12.0000 </r>
       <r>   -21.5001     0.0000    12.0000 </r>
       <r>   -21.2915     0.0000    12.0000 </r>
       <r>   -21.0830     0.0000    12.0000 </r>
       <r>   -20.8744     0.0000    12.0000 </r>
       <r>   -20.6659     0.0000    12.0000 </r>
       <r>   -20.4573     0.0000    12.0000 </r>
       <r>   -20.2488     0.0000    12.0000 </r>
       <r>   -20.0402     0.0000    12.0000 </r>
       <r>   -19.8317     0.0000    12.0000 </r>
       <r>   -19.6231     0.0000    12.0000 </r>
       <r>   -19.4146     0.0000    12.0000 </r>
       <r>   -19.2060     0.0000    12.0000 </r>
       <r>   -18.9975     0.0000    12.0000 </r>
       <r>   -18.7889     0.0000    12.0000 </r>
       <r>   -18.5804     0.0000    12.0000 </r>
       <r>   -18.3718     0.0000    12.0000 </r>
       <r>   -18.1633     0.0000    12.0000 </r>
       <r>   -17.9547     0.0000    12.0000 </r>
       <r>   -17.7462     0.0000    12.0000 </r>
       <r>   -17.5376     0.0000    12.0000 </r>
       <r>   -17.3291     0.0000    12.0000 </r>
       <r>   -17.1205     0.0000    12.0000 </r>
       <r>   -16.9120     0.0000    12.0000 </r>
       <r>   -16.7034     0.0000    12.0000 </r>
       <r>   -16.4949     0.0000    12.0000 </r>
       <r>   -16.2863     0.0000    12.0000 </r>
       <r>   -16.0778     0.0000    12.0000 </r>
       <r>   -15.8692     0.0000    12.0000 </r>
       <r>   -15.6607     0.0000    12.0000 </r>
       <r>   -15.4522     0.0000    12.0000 </r>
       <r>   -15.2436     0.0000    12.0000 </r>
       <r>   -15.0351     0.0000    12.0000 </r>
       <r>   -14.8265     0.0000    12.0000 </r>
       <r>   -14.6180     0.0000    12.0000 </r>
       <r>   -14.4094     0.0000    12.0000 </r>
       <r>   -14.2009     0.0000    12.0000 </r>
       <r>   -13.9923     0.0000    12.0000 </r>
       <r>   -13.7838     0.0000    12.0000 </r>
       <r>   -13.5752     0.0000    12.0000 </r>
       <r>   -13.3667     0.0000    12.0000 </r>
       <r>   -13.1581     0.0000    12.0000 </r>
       <r>   -12.9496     0.0000    12.0000 </r>
       <r>   -12.7410     0.0000    12.0000 </r>
       <r>   -12.5325     0.0000    12.0000 </r>
       <r>   -12.3239     0.0000    12.0000 </r>
       <r>   -12.1154     0.0000    12.0000 </r>
       <r>   -11.9068     0.0000    12.0000 </r>
       <r>   -11.6983     0.0000    12.0000 </r>
       <r>   -11.4897     0.0000    12.0000 </r>
       <r>   -11.2812     0.0000    12.0000 </r>
       <r>   -11.0726     0.0000    12.0000 </r>
       <r>   -10.8641     0.0000    12.0000 </r>
       <r>   -10.6555     0.0000    12.0000 </r>
       <r>   -10.4470     0.0000    12.0000 </r>
       <r>   -10.2384     0.0000    12.0000 </r>
       <r>   -10.0299     0.0000    12.0000 </r>
       <r>    -9.8213     0.0000    12.0000 </r>
       <r>    -9.6128     0.0000    12.0000 </r>
       <r>    -9.4043     0.0000    12.0000 </r>
       <r>    -9.1957     0.0000    12.0000 </r>
       <r>    -8.9872     0.0000    12.0000 </r>
       <r>    -8.7786     0.0000    12.0000 </r>
       <r>    -8.5701     0.0000    12.0000 </r>
       <r>    -8.3615     0.0000    12.0000 </r>
       <r>    -8.1530     0.0000    12.0000 </r>
       <r>    -7.9444     0.0000    12.0000 </r>
       <r>    -7.7359     0.0000    12.0000 </r>
       <r>    -7.5273     0.0000    12.0000 </r>
       <r>    -7.3188     0.0000    12.0000 </r>
       <r>    -7.1102     0.0000    12.0000 </r>
       <r>    -6.9017     0.0000    12.0000 </r>
       <r>    -6.6931     0.0000    12.0000 </r>
       <r>    -6.4846     0.0000    12.0000 </r>
       <r>    -6.2760     0.0000    12.0000 </r>
       <r>    -6.0675     0.0000    12.0000 </r>
       <r>    -5.8589     0.0000    12.0000 </r>
       <r>    -5.6504     0.0000    12.0000 </r>
       <r>    -5.4418     0.0000    12.0000 </r>
       <r>    -5.2333     0.0000    12.0000 </r>
       <r>    -5.0247     0.0000    12.0000 </r>
       <r>    -4.8162     0.0000    12.0000 </r>
       <r>    -4.6076     0.0000    12.0000 </r>
       <r>    -4.3991     0.0000    12.0000 </r>
       <r>    -4.1905     0.0000    12.0000 </r>
       <r>    -3.9820     0.0000    12.0000 </r>
       <r>    -3.7734     0.0000    12.0000 </r>
       <r>    -3.5649     0.0000    12.0000 </r>
       <r>    -3.3564     0.0000    12.0000 </r>
       <r>    -3.1478     0.0000    12.0000 </r>
       <r>    -2.9393     0.0000    12.0000 </r>
       <r>    -2.7307     0.0000    12.0000 </r>
       <r>    -2.5222     0.0000    12.0000 </r>
       <r>    -2.3136     0.0000    12.0000 </r>
       <r>    -2.1051     0.0000    12.0000 </r>
       <r>    -1.8965     0.0000    12.0000 </r>
       <r>    -1.6880     0.0000    12.0000 </r>
       <r>    -1.4794     0.0001    12.0000 </r>
       <r>    -1.2709     0.0912    12.0190 </r>
       <r>    -1.0623     0.2601    12.0733 </r>
       <r>    -0.8538     0.0038    12.0741 </r>
       <r>    -0.6452     0.0000    12.0741 </r>
       <r>    -0.4367     0.0000    12.0741 </r>
       <r>    -0.2281     0.0000    12.0741 </r>
       <r>    -0.0196     0.0000    12.0741 </r>
       <r>     0.1890     0.0000    12.0741 </r>
       <r>     0.3975     0.0001    12.0741 </r>
       <r>     0.6061     0.3325    12.1434 </r>
       <r>     0.8146     1.7425    12.5068 </r>
       <r>     1.0232     0.2940    12.5681 </r>
       <r>     1.2317     4.2334    13.4510 </r>
       <r>     1.4403     0.5012    13.5555 </r>
       <r>     1.6488     0.1281    13.5823 </r>
       <r>     1.8574     3.5269    14.3178 </r>
       <r>     2.0659     0.6080    14.4446 </r>
       <r>     2.2745     1.0774    14.6693 </r>
       <r>     2.4830     3.5563    15.4109 </r>
       <r>     2.6916     2.3909    15.9096 </r>
       <r>     2.9001     0.5706    16.0285 </r>
       <r>     3.1086     2.7052    16.5927 </r>
       <r>     3.3172     5.0676    17.6495 </r>
       <r>     3.5257     3.8869    18.4601 </r>
       <r>     3.7343     2.7225    19.0279 </r>
       <r>     3.9428     3.5841    19.7754 </r>
       <r>     4.1514     3.5669    20.5193 </r>
       <r>     4.3599     4.9154    21.5444 </r>
       <r>     4.5685     0.0537    21.5556 </r>
       <r>     4.7770     0.0374    21.5634 </r>
       <r>     4.9856     5.3280    22.6745 </r>
       <r>     5.1941     4.2158    23.5537 </r>
       <r>     5.4027     1.2445    23.8132 </r>
       <r>     5.6112     0.8938    23.9996 </r>
       <r>     5.8198     0.1493    24.0308 </r>
       <r>     6.0283     1.8321    24.4129 </r>
       <r>     6.2369     0.1775    24.4499 </r>
       <r>     6.4454     2.8357    25.0413 </r>
       <r>     6.6540     2.1822    25.4963 </r>
       <r>     6.8625     3.3942    26.2042 </r>
       <r>     7.0711     0.0864    26.2222 </r>
       <r>     7.2796     0.0025    26.2227 </r>
       <r>     7.4882     1.6294    26.5626 </r>
       <r>     7.6967     2.9394    27.1756 </r>
       <r>     7.9053     0.4898    27.2777 </r>
       <r>     8.1138     8.5880    29.0687 </r>
       <r>     8.3224     8.1901    30.7768 </r>
       <r>     8.5309     2.3842    31.2740 </r>
       <r>     8.7395     4.7892    32.2728 </r>
       <r>     8.9480     0.1128    32.2963 </r>
       <r>     9.1565     0.0000    32.2963 </r>
       <r>     9.3651     0.0000    32.2963 </r>
       <r>     9.5736     0.0000    32.2963 </r>
       <r>     9.7822     0.1731    32.3324 </r>
       <r>     9.9907     1.0165    32.5444 </r>
       <r>    10.1993     1.8875    32.9380 </r>
       <r>    10.4078     3.0405    33.5721 </r>
       <r>    10.6164     1.3400    33.8516 </r>
       <r>    10.8249     0.0687    33.8659 </r>
       <r>    11.0335     3.2926    34.5526 </r>
       <r>    11.2420     0.9019    34.7407 </r>
       <r>    11.4506     0.1702    34.7762 </r>
       <r>    11.6591     2.4390    35.2848 </r>
       <r>    11.8677     0.2326    35.3333 </r>
       <r>    12.0762     0.0000    35.3333 </r>
       <r>    12.2848     0.0000    35.3333 </r>
       <r>    12.4933     0.0000    35.3333 </r>
       <r>    12.7019     0.0000    35.3333 </r>
       <r>    12.9104     0.0000    35.3333 </r>
       <r>    13.1190     0.0000    35.3333 </r>
       <r>    13.3275     0.0004    35.3334 </r>
       <r>    13.5361     0.3686    35.4103 </r>
       <r>    13.7446     0.6908    35.5544 </r>
       <r>    13.9532     0.0057    35.5556 </r>
       <r>    14.1617     0.0000    35.5556 </r>
       <r>    14.3703     0.0718    35.5705 </r>
       <r>    14.5788     2.3148    36.0533 </r>
       <r>    14.7874     0.4548    36.1481 </r>
       <r>    14.9959     0.0672    36.1621 </r>
       <r>    15.2044     4.2161    37.0414 </r>
       <r>    15.4130     1.4267    37.3389 </r>
       <r>    15.6215     2.8681    37.9371 </r>
       <r>    15.8301     1.3659    38.2219 </r>
       <r>    16.0386     0.0014    38.2222 </r>
       <r>    16.2472     0.0000    38.2222 </r>
       <r>    16.4557     0.0000    38.2222 </r>
       <r>    16.6643     0.0000    38.2222 </r>
       <r>    16.8728     0.0000    38.2222 </r>
       <r>    17.0814     0.0000    38.2222 </r>
       <r>    17.2899     0.0006    38.2224 </r>
       <r>    17.4985     0.8172    38.3928 </r>
       <r>    17.7070     1.9997    38.8098 </r>
       <r>    17.9156     0.0240    38.8148 </r>
       <r>    18.1241     0.0081    38.8165 </r>
       <r>    18.3327     2.2476    39.2852 </r>
       <r>    18.5412     7.0899    40.7638 </r>
       <r>    18.7498     4.8306    41.7712 </r>
       <r>    18.9583     1.1141    42.0036 </r>
       <r>    19.1669     3.1324    42.6568 </r>
       <r>    19.3754     0.1229    42.6824 </r>
       <r>    19.5840     3.3437    43.3798 </r>
       <r>    19.7925     2.6656    43.9357 </r>
       <r>    20.0011     3.3293    44.6300 </r>
       <r>    20.2096     0.1758    44.6667 </r>
       <r>    20.4182     0.0118    44.6691 </r>
       <r>    20.6267     1.3909    44.9592 </r>
       <r>    20.8353     0.7276    45.1109 </r>
       <r>    21.0438     0.0009    45.1111 </r>
       <r>    21.2524     0.2833    45.1702 </r>
       <r>    21.4609     3.1304    45.8230 </r>
       <r>    21.6694     3.5130    46.5557 </r>
       <r>    21.8780     0.1771    46.5926 </r>
       <r>    22.0865     0.0000    46.5926 </r>
       <r>    22.2951     0.0534    46.6037 </r>
       <r>    22.5036     0.2919    46.6646 </r>
       <r>    22.7122     0.0260    46.6700 </r>
       <r>    22.9207     2.5831    47.2087 </r>
       <r>    23.1293     1.6603    47.5550 </r>
       <r>    23.3378     0.0027    47.5556 </r>
       <r>    23.5464     0.1557    47.5880 </r>
       <r>    23.7549     1.8319    47.9701 </r>
       <r>    23.9635     0.1435    48.0000 </r>
       <r>    24.1720     0.0146    48.0030 </r>
       <r>    24.3806     1.8332    48.3854 </r>
       <r>    24.5891     1.9288    48.7876 </r>
       <r>    24.7977     3.9074    49.6025 </r>
       <r>    25.0062     3.2077    50.2715 </r>
       <r>    25.2148     1.1838    50.5183 </r>
       <r>    25.4233     0.0139    50.5212 </r>
       <r>    25.6319     3.1538    51.1790 </r>
       <r>    25.8404     5.8537    52.3997 </r>
       <r>    26.0490     0.9244    52.5925 </r>
       <r>    26.2575     0.0004    52.5926 </r>
       <r>    26.4661     0.0000    52.5926 </r>
       <r>    26.6746     0.0000    52.5926 </r>
       <r>    26.8832     0.0000    52.5926 </r>
       <r>    27.0917     0.0000    52.5926 </r>
       <r>    27.3003     0.0000    52.5926 </r>
       <r>    27.5088     0.0000    52.5926 </r>
       <r>    27.7173     0.0001    52.5926 </r>
       <r>    27.9259     0.5929    52.7163 </r>
       <r>    28.1344     3.5368    53.4538 </r>
       <r>    28.3430     0.2926    53.5149 </r>
       <r>    28.5515     3.5861    54.2627 </r>
       <r>    28.7601     0.5160    54.3704 </r>
       <r>    28.9686     0.2378    54.4199 </r>
       <r>    29.1772     3.6870    55.1889 </r>
       <r>    29.3857     0.9775    55.3927 </r>
       <r>    29.5943     0.0705    55.4074 </r>
       <r>    29.8028     0.0000    55.4074 </r>
       <r>    30.0114     0.0000    55.4074 </r>
       <r>    30.2199     0.0001    55.4074 </r>
       <r>    30.4285     0.4027    55.4914 </r>
       <r>    30.6370     2.3527    55.9821 </r>
       <r>    30.8456     0.0860    56.0000 </r>
       <r>    31.0541     0.0000    56.0000 </r>
       <r>    31.2627     0.0000    56.0000 </r>
       <r>    31.4712     0.0000    56.0000 </r>
       <r>    31.6798     0.0000    56.0000 </r>
       <r>    31.8883     0.0000    56.0000 </r>
       <r>    32.0969     0.0000    56.0000 </r>
       <r>    32.3054     0.0000    56.0000 </r>
       <r>    32.5140     0.0000    56.0000 </r>
       <r>    32.7225     0.0000    56.0000 </r>
       <r>    32.9311     0.0000    56.0000 </r>
       <r>    33.1396     0.0000    56.0000 </r>
       <r>    33.3482     0.0000    56.0000 </r>
      </set>
     </set>
    </array>
   </total>
  </dos>
 </calculation>
 <structure name="finalpos" >
  <crystal>
   <varray name="basis" >
    <v>       3.35318126       0.00000000      -0.00000000 </v>
    <v>      -0.00000000       3.35318126      -0.00000000 </v>
    <v>      -0.00000000       0.00000000       3.35318126 </v>
   </varray>
   <i name="volume">     37.70258166 </i>
   <varray name="rec_basis" >
    <v>       0.29822426       0.00000000       0.00000000 </v>
    <v>      -0.00000000       0.29822426      -0.00000000 </v>
    <v>       0.00000000       0.00000000       0.29822426 </v>
   </varray>
  </crystal>
  <varray name="positions" >
   <v>       0.00000000       0.00000000       0.00000000 </v>
   <v>       0.50000000       0.50000000       0.50000000 </v>
  </varray>
 </structure>
</modeling>
