  64  64   0   0
  0.1129557E+02  0.8932500E-09  0.9055600E-09  0.8937200E-09  0.5000000E-15
  1.000000000000000E-004
  CAR 
 HEBCN                                   
     14.91319686    -50.49309265  301      8.75273133      1.00000000
    -50.493  0.0000E+00  0.0000E+00
    -50.275  0.0000E+00  0.0000E+00
    -50.057  0.0000E+00  0.0000E+00
    -49.839  0.0000E+00  0.0000E+00
    -49.621  0.0000E+00  0.0000E+00
    -49.403  0.0000E+00  0.0000E+00
    -49.185  0.0000E+00  0.0000E+00
    -48.967  0.0000E+00  0.0000E+00
    -48.749  0.0000E+00  0.0000E+00
    -48.531  0.0000E+00  0.0000E+00
    -48.313  0.0000E+00  0.0000E+00
    -48.095  0.2037E-14  0.4441E-15
    -47.877  0.2076E-05  0.4526E-06
    -47.659  0.2282E+00  0.4975E-01
    -47.441  0.7921E+01  0.1777E+01
    -47.223  0.3118E+02  0.8575E+01
    -47.005  0.2474E+02  0.1397E+02
    -46.787  0.1444E+00  0.1400E+02
    -46.569  0.4818E-06  0.1400E+02
    -46.351  0.0000E+00  0.1400E+02
    -46.133  0.0000E+00  0.1400E+02
    -45.915  0.0000E+00  0.1400E+02
    -45.697  0.0000E+00  0.1400E+02
    -45.479  0.0000E+00  0.1400E+02
    -45.261  0.0000E+00  0.1400E+02
    -45.043  0.0000E+00  0.1400E+02
    -44.825  0.0000E+00  0.1400E+02
    -44.607  0.0000E+00  0.1400E+02
    -44.389  0.0000E+00  0.1400E+02
    -44.170  0.0000E+00  0.1400E+02
    -43.952  0.0000E+00  0.1400E+02
    -43.734  0.0000E+00  0.1400E+02
    -43.516  0.0000E+00  0.1400E+02
    -43.298  0.0000E+00  0.1400E+02
    -43.080  0.0000E+00  0.1400E+02
    -42.862  0.0000E+00  0.1400E+02
    -42.644  0.0000E+00  0.1400E+02
    -42.426  0.0000E+00  0.1400E+02
    -42.208  0.0000E+00  0.1400E+02
    -41.990  0.0000E+00  0.1400E+02
    -41.772  0.0000E+00  0.1400E+02
    -41.554  0.0000E+00  0.1400E+02
    -41.336  0.0000E+00  0.1400E+02
    -41.118  0.0000E+00  0.1400E+02
    -40.900  0.0000E+00  0.1400E+02
    -40.682  0.0000E+00  0.1400E+02
    -40.464  0.0000E+00  0.1400E+02
    -40.246  0.0000E+00  0.1400E+02
    -40.028  0.0000E+00  0.1400E+02
    -39.810  0.0000E+00  0.1400E+02
    -39.592  0.0000E+00  0.1400E+02
    -39.374  0.0000E+00  0.1400E+02
    -39.156  0.0000E+00  0.1400E+02
    -38.938  0.0000E+00  0.1400E+02
    -38.720  0.0000E+00  0.1400E+02
    -38.502  0.0000E+00  0.1400E+02
    -38.284  0.0000E+00  0.1400E+02
    -38.066  0.0000E+00  0.1400E+02
    -37.848  0.0000E+00  0.1400E+02
    -37.630  0.0000E+00  0.1400E+02
    -37.412  0.0000E+00  0.1400E+02
    -37.194  0.0000E+00  0.1400E+02
    -36.976  0.0000E+00  0.1400E+02
    -36.758  0.0000E+00  0.1400E+02
    -36.540  0.0000E+00  0.1400E+02
    -36.322  0.0000E+00  0.1400E+02
    -36.104  0.0000E+00  0.1400E+02
    -35.886  0.0000E+00  0.1400E+02
    -35.668  0.0000E+00  0.1400E+02
    -35.450  0.4103E-09  0.1400E+02
    -35.232  0.3494E-02  0.1400E+02
    -35.014  0.8558E+01  0.1587E+02
    -34.796  0.1099E+03  0.3982E+02
    -34.578  0.4654E+02  0.4997E+02
    -34.360  0.1352E+00  0.5000E+02
    -34.142  0.1699E-06  0.5000E+02
    -33.923  0.0000E+00  0.5000E+02
    -33.705  0.0000E+00  0.5000E+02
    -33.487  0.0000E+00  0.5000E+02
    -33.269  0.0000E+00  0.5000E+02
    -33.051  0.0000E+00  0.5000E+02
    -32.833  0.0000E+00  0.5000E+02
    -32.615  0.0000E+00  0.5000E+02
    -32.397  0.0000E+00  0.5000E+02
    -32.179  0.0000E+00  0.5000E+02
    -31.961  0.0000E+00  0.5000E+02
    -31.743  0.0000E+00  0.5000E+02
    -31.525  0.1018E-14  0.5000E+02
    -31.307  0.1222E-05  0.5000E+02
    -31.089  0.1921E+00  0.5004E+02
    -30.871  0.1430E+02  0.5316E+02
    -30.653  0.5313E+02  0.6474E+02
    -30.435  0.6958E+02  0.7991E+02
    -30.217  0.2774E+02  0.8596E+02
    -29.999  0.1802E+00  0.8600E+02
    -29.781  0.5237E-06  0.8600E+02
    -29.563  0.0000E+00  0.8600E+02
    -29.345  0.0000E+00  0.8600E+02
    -29.127  0.0000E+00  0.8600E+02
    -28.909  0.0000E+00  0.8600E+02
    -28.691  0.0000E+00  0.8600E+02
    -28.473  0.0000E+00  0.8600E+02
    -28.255  0.0000E+00  0.8600E+02
    -28.037  0.0000E+00  0.8600E+02
    -27.819  0.0000E+00  0.8600E+02
    -27.601  0.4412E-12  0.8600E+02
    -27.383  0.6814E-04  0.8600E+02
    -27.165  0.1460E+01  0.8632E+02
    -26.947  0.2363E+02  0.9147E+02
    -26.729  0.4752E+02  0.1018E+03
    -26.511  0.6000E+02  0.1149E+03
    -26.293  0.3092E+02  0.1217E+03
    -26.075  0.1597E+01  0.1220E+03
    -25.857  0.6548E-04  0.1220E+03
    -25.639  0.3445E-12  0.1220E+03
    -25.421  0.0000E+00  0.1220E+03
    -25.203  0.0000E+00  0.1220E+03
    -24.985  0.0000E+00  0.1220E+03
    -24.767  0.0000E+00  0.1220E+03
    -24.549  0.0000E+00  0.1220E+03
    -24.331  0.0000E+00  0.1220E+03
    -24.113  0.2717E-09  0.1220E+03
    -23.895  0.3434E-02  0.1220E+03
    -23.677  0.7107E+01  0.1236E+03
    -23.458  0.4299E+02  0.1329E+03
    -23.240  0.1129E+03  0.1575E+03
    -23.022  0.2917E+02  0.1639E+03
    -22.804  0.4443E+00  0.1640E+03
    -22.586  0.5836E+01  0.1653E+03
    -22.368  0.3936E+02  0.1739E+03
    -22.150  0.3713E+02  0.1820E+03
    -21.932  0.4104E+02  0.1909E+03
    -21.714  0.3930E+02  0.1995E+03
    -21.496  0.2853E+02  0.2057E+03
    -21.278  0.1434E+01  0.2060E+03
    -21.060  0.6363E-04  0.2060E+03
    -20.842  0.3674E-12  0.2060E+03
    -20.624  0.0000E+00  0.2060E+03
    -20.406  0.0000E+00  0.2060E+03
    -20.188  0.0000E+00  0.2060E+03
    -19.970  0.0000E+00  0.2060E+03
    -19.752  0.0000E+00  0.2060E+03
    -19.534  0.0000E+00  0.2060E+03
    -19.316  0.0000E+00  0.2060E+03
    -19.098  0.0000E+00  0.2060E+03
    -18.880  0.0000E+00  0.2060E+03
    -18.662  0.0000E+00  0.2060E+03
    -18.444  0.0000E+00  0.2060E+03
    -18.226  0.0000E+00  0.2060E+03
    -18.008  0.0000E+00  0.2060E+03
    -17.790  0.0000E+00  0.2060E+03
    -17.572  0.0000E+00  0.2060E+03
    -17.354  0.0000E+00  0.2060E+03
    -17.136  0.0000E+00  0.2060E+03
    -16.918  0.0000E+00  0.2060E+03
    -16.700  0.0000E+00  0.2060E+03
    -16.482  0.0000E+00  0.2060E+03
    -16.264  0.0000E+00  0.2060E+03
    -16.046  0.0000E+00  0.2060E+03
    -15.828  0.0000E+00  0.2060E+03
    -15.610  0.0000E+00  0.2060E+03
    -15.392  0.0000E+00  0.2060E+03
    -15.174  0.0000E+00  0.2060E+03
    -14.956  0.0000E+00  0.2060E+03
    -14.738  0.0000E+00  0.2060E+03
    -14.520  0.0000E+00  0.2060E+03
    -14.302  0.0000E+00  0.2060E+03
    -14.084  0.0000E+00  0.2060E+03
    -13.866  0.0000E+00  0.2060E+03
    -13.648  0.0000E+00  0.2060E+03
    -13.430  0.0000E+00  0.2060E+03
    -13.212  0.0000E+00  0.2060E+03
    -12.993  0.0000E+00  0.2060E+03
    -12.775  0.0000E+00  0.2060E+03
    -12.557  0.0000E+00  0.2060E+03
    -12.339  0.0000E+00  0.2060E+03
    -12.121  0.0000E+00  0.2060E+03
    -11.903  0.0000E+00  0.2060E+03
    -11.685  0.0000E+00  0.2060E+03
    -11.467  0.0000E+00  0.2060E+03
    -11.249  0.0000E+00  0.2060E+03
    -11.031  0.0000E+00  0.2060E+03
    -10.813  0.0000E+00  0.2060E+03
    -10.595  0.0000E+00  0.2060E+03
    -10.377  0.0000E+00  0.2060E+03
    -10.159  0.0000E+00  0.2060E+03
     -9.941  0.0000E+00  0.2060E+03
     -9.723  0.0000E+00  0.2060E+03
     -9.505  0.0000E+00  0.2060E+03
     -9.287  0.0000E+00  0.2060E+03
     -9.069  0.0000E+00  0.2060E+03
     -8.851  0.0000E+00  0.2060E+03
     -8.633  0.0000E+00  0.2060E+03
     -8.415  0.0000E+00  0.2060E+03
     -8.197  0.0000E+00  0.2060E+03
     -7.979  0.2230E-07  0.2060E+03
     -7.761  0.6806E-02  0.2060E+03
     -7.543  0.1357E+01  0.2063E+03
     -7.325  0.6269E+01  0.2077E+03
     -7.107  0.1785E+01  0.2081E+03
     -6.889  0.7595E+01  0.2097E+03
     -6.671  0.1265E+02  0.2125E+03
     -6.453  0.2219E+02  0.2173E+03
     -6.235  0.1874E+02  0.2214E+03
     -6.017  0.2139E+02  0.2261E+03
     -5.799  0.1433E+02  0.2292E+03
     -5.581  0.1190E+02  0.2318E+03
     -5.363  0.1043E+01  0.2320E+03
     -5.145  0.1226E-03  0.2320E+03
     -4.927  0.2962E+00  0.2321E+03
     -4.709  0.6252E+01  0.2334E+03
     -4.491  0.2614E+01  0.2340E+03
     -4.273  0.9954E+00  0.2342E+03
     -4.055  0.7804E+01  0.2359E+03
     -3.837  0.7241E+01  0.2375E+03
     -3.619  0.1254E+02  0.2402E+03
     -3.401  0.1366E+02  0.2432E+03
     -3.183  0.1618E+02  0.2467E+03
     -2.965  0.1781E+02  0.2506E+03
     -2.747  0.1635E+02  0.2542E+03
     -2.528  0.1873E+02  0.2583E+03
     -2.310  0.2152E+02  0.2630E+03
     -2.092  0.1270E+02  0.2657E+03
     -1.874  0.1022E+02  0.2680E+03
     -1.656  0.8121E+01  0.2697E+03
     -1.438  0.1259E+01  0.2700E+03
     -1.220  0.1112E-01  0.2700E+03
     -1.002  0.1115E-06  0.2700E+03
     -0.784  0.1509E-15  0.2700E+03
     -0.566  0.0000E+00  0.2700E+03
     -0.348  0.0000E+00  0.2700E+03
     -0.130  0.5224E-14  0.2700E+03
      0.088  0.1190E-05  0.2700E+03
      0.306  0.3835E-01  0.2700E+03
      0.524  0.9321E+00  0.2702E+03
      0.742  0.4084E+01  0.2711E+03
      0.960  0.1061E+02  0.2734E+03
      1.178  0.1148E+02  0.2759E+03
      1.396  0.9991E+01  0.2781E+03
      1.614  0.1571E+02  0.2815E+03
      1.832  0.2320E+02  0.2866E+03
      2.050  0.2459E+02  0.2919E+03
      2.268  0.2563E+02  0.2975E+03
      2.486  0.2654E+02  0.3033E+03
      2.704  0.3441E+02  0.3108E+03
      2.922  0.3171E+02  0.3177E+03
      3.140  0.3542E+02  0.3255E+03
      3.358  0.5126E+02  0.3366E+03
      3.576  0.5928E+02  0.3496E+03
      3.794  0.6252E+02  0.3632E+03
      4.012  0.6108E+02  0.3765E+03
      4.230  0.6107E+02  0.3898E+03
      4.448  0.6078E+02  0.4031E+03
      4.666  0.5354E+02  0.4147E+03
      4.884  0.4873E+02  0.4254E+03
      5.102  0.3708E+02  0.4334E+03
      5.320  0.3237E+02  0.4405E+03
      5.538  0.2898E+02  0.4468E+03
      5.756  0.2814E+02  0.4530E+03
      5.974  0.1797E+02  0.4569E+03
      6.192  0.1402E+02  0.4599E+03
      6.410  0.1032E+02  0.4622E+03
      6.628  0.1163E+02  0.4647E+03
      6.846  0.1397E+02  0.4678E+03
      7.064  0.1610E+02  0.4713E+03
      7.282  0.1913E+02  0.4754E+03
      7.500  0.1761E+02  0.4793E+03
      7.719  0.1839E+02  0.4833E+03
      7.937  0.2312E+02  0.4883E+03
      8.155  0.2874E+02  0.4946E+03
      8.373  0.2582E+02  0.5002E+03
      8.591  0.2654E+02  0.5060E+03
      8.809  0.3893E+02  0.5145E+03
      9.027  0.4549E+02  0.5244E+03
      9.245  0.4496E+02  0.5342E+03
      9.463  0.4286E+02  0.5436E+03
      9.681  0.4363E+02  0.5531E+03
      9.899  0.4650E+02  0.5632E+03
     10.117  0.4513E+02  0.5731E+03
     10.335  0.4123E+02  0.5820E+03
     10.553  0.4359E+02  0.5915E+03
     10.771  0.4113E+02  0.6005E+03
     10.989  0.3589E+02  0.6083E+03
     11.207  0.3240E+02  0.6154E+03
     11.425  0.2340E+02  0.6205E+03
     11.643  0.1257E+02  0.6232E+03
     11.861  0.2734E+01  0.6238E+03
     12.079  0.6955E+00  0.6240E+03
     12.297  0.1692E-01  0.6240E+03
     12.515  0.1538E-06  0.6240E+03
     12.733  0.1509E-15  0.6240E+03
     12.951  0.0000E+00  0.6240E+03
     13.169  0.0000E+00  0.6240E+03
     13.387  0.0000E+00  0.6240E+03
     13.605  0.0000E+00  0.6240E+03
     13.823  0.0000E+00  0.6240E+03
     14.041  0.0000E+00  0.6240E+03
     14.259  0.0000E+00  0.6240E+03
     14.477  0.0000E+00  0.6240E+03
     14.695  0.0000E+00  0.6240E+03
     14.913  0.0000E+00  0.6240E+03
