 vasp.5.4.4.18Apr17-6-g9f103f2a35 (build Oct 18 2021 20:38:43) complex          
  
 executed on             LinuxIFC date 2025.11.12  17:08:10
 running on   24 total cores
 distrk:  each k-point on   24 cores,    1 groups
 distr:  one band on NCORES_PER_BAND=   1 cores,   24 groups


--------------------------------------------------------------------------------------------------------


 INCAR:
 POTCAR:   PAW_PBE Nb_sv 17Jan2003                
 POTCAR:   PAW_PBE Ta_pv 07Sep2000                
 POTCAR:   PAW_PBE Hf_pv 06Sep2000                
 POTCAR:   PAW_PBE N 08Apr2002                    
 POTCAR:   PAW_PBE C 08Apr2002                    
 POTCAR:   PAW_PBE Cr_pv 07Sep2000                
 POTCAR:   PAW_PBE W_pv 06Sep2000                 

 ----------------------------------------------------------------------------- 
|                                                                             |
|           W    W    AA    RRRRR   N    N  II  N    N   GGGG   !!!           |
|           W    W   A  A   R    R  NN   N  II  NN   N  G    G  !!!           |
|           W    W  A    A  R    R  N N  N  II  N N  N  G       !!!           |
|           W WW W  AAAAAA  RRRRR   N  N N  II  N  N N  G  GGG   !            |
|           WW  WW  A    A  R   R   N   NN  II  N   NN  G    G                |
|           W    W  A    A  R    R  N    N  II  N    N   GGGG   !!!           |
|                                                                             |
|      For optimal performance we recommend to set                            |
|        NCORE= 4 - approx SQRT( number of cores)                             |
|      NCORE specifies how many cores store one orbital (NPAR=cpu/NCORE).     |
|      This setting can  greatly improve the performance of VASP for DFT.     |
|      The default,   NCORE=1            might be grossly inefficient         |
|      on modern multi-core architectures or massively parallel machines.     |
|      Do your own testing !!!!                                               |
|      Unfortunately you need to use the default for GW and RPA calculations. |
|      (for HF NCORE is supported but not extensively tested yet)             |
|                                                                             |
 ----------------------------------------------------------------------------- 

 POTCAR:   PAW_PBE Nb_sv 17Jan2003                
   VRHFIN =Nb: 4p5s4d                                                           
   LEXCH  = PE                                                                  
   EATOM  =  1555.1913 eV,  114.3033 Ry                                         
                                                                                
   TITEL  = PAW_PBE Nb_sv 17Jan2003                                             
   LULTRA =        F    use ultrasoft PP ?                                      
   IUNSCR =        1    unscreen: 0-lin 1-nonlin 2-no                           
   RPACOR =    1.800    partial core radius                                     
   POMASS =   92.910; ZVAL   =   13.000    mass and valenz                      
   RCORE  =    2.200    outmost cutoff radius                                   
   RWIGS  =    2.400; RWIGS  =    1.270    wigner-seitz radius (au A)           
   ENMAX  =  293.235; ENMIN  =  219.927 eV                                      
   RCLOC  =    1.411    cutoff for local pot                                    
   LCOR   =        T    correct aug charges                                     
   LPAW   =        T    paw PP                                                  
   EAUG   =  455.659                                                            
   DEXC   =     .000                                                            
   RMAX   =    2.693    core radius for proj-oper                               
   RAUG   =    1.300    factor for augmentation sphere                          
   RDEP   =    2.299    radius for radial grids                                 
   QCUT   =   -4.642; QGAM   =    9.285    optimization parameters              
                                                                                
   Description                                                                  
     l     E      TYP  RCUT    TYP  RCUT                                        
     0   .000     23  2.200                                                     
     0   .000     23  2.200                                                     
     0   .000     23  2.200                                                     
     0   .000     23  2.200                                                     
     1   .000     23  2.200                                                     
     1  1.000     23  2.200                                                     
     2   .000     23  2.200                                                     
     2   .000     23  2.200                                                     
     3   .000      7   .000                                                     
  local pseudopotential read in
  partial core-charges read in
  atomic valenz-charges read in
  non local Contribution for L=           0  read in
    real space projection operators read in
  non local Contribution for L=           0  read in
    real space projection operators read in
  non local Contribution for L=           1  read in
    real space projection operators read in
  non local Contribution for L=           1  read in
    real space projection operators read in
  non local Contribution for L=           2  read in
    real space projection operators read in
  non local Contribution for L=           2  read in
    real space projection operators read in
    PAW grid and wavefunctions read in
 
   number of l-projection  operators is LMAX  =           6
   number of lm-projection operators is LMMAX =          18
 
 POTCAR:   PAW_PBE Ta_pv 07Sep2000                
   VRHFIN =Ta:  5p6s5d                                                          
   LEXCH  = PE                                                                  
   EATOM  =  1045.8051 eV,   76.8645 Ry                                         
                                                                                
   TITEL  = PAW_PBE Ta_pv 07Sep2000                                             
   LULTRA =        F    use ultrasoft PP ?                                      
   IUNSCR =        1    unscreen: 0-lin 1-nonlin 2-no                           
   RPACOR =    2.330    partial core radius                                     
   POMASS =  180.948; ZVAL   =   11.000    mass and valenz                      
   RCORE  =    2.500    outmost cutoff radius                                   
   RWIGS  =    2.840; RWIGS  =    1.503    wigner-seitz radius (au A)           
   ENMAX  =  223.675; ENMIN  =  167.756 eV                                      
   RCLOC  =    2.205    cutoff for local pot                                    
   LCOR   =        T    correct aug charges                                     
   LPAW   =        T    paw PP                                                  
   EAUG   =  377.421                                                            
   DEXC   =    -.043                                                            
   RMAX   =    3.083    core radius for proj-oper                               
   RAUG   =    1.300    factor for augmentation sphere                          
   RDEP   =    2.526    radius for radial grids                                 
   QCUT   =   -4.055; QGAM   =    8.109    optimization parameters              
                                                                                
   Description                                                                  
     l     E      TYP  RCUT    TYP  RCUT                                        
     1   .000     23  2.500                                                     
     1   .100     23  2.500                                                     
     2   .000     23  2.500                                                     
     2   .000     23  2.500                                                     
     0   .000     23  2.500                                                     
     0   .000     23  2.500                                                     
     3   .000      7   .000                                                     
  local pseudopotential read in
  partial core-charges read in
  atomic valenz-charges read in
  non local Contribution for L=           1  read in
    real space projection operators read in
  non local Contribution for L=           1  read in
    real space projection operators read in
  non local Contribution for L=           2  read in
    real space projection operators read in
  non local Contribution for L=           2  read in
    real space projection operators read in
  non local Contribution for L=           0  read in
    real space projection operators read in
  non local Contribution for L=           0  read in
    real space projection operators read in
    PAW grid and wavefunctions read in
 
   number of l-projection  operators is LMAX  =           6
   number of lm-projection operators is LMMAX =          18
 
 POTCAR:   PAW_PBE Hf_pv 06Sep2000                
   VRHFIN =Hf: 5p6s5d                                                           
   LEXCH  = PE                                                                  
   EATOM  =   859.6195 eV,   63.1803 Ry                                         
                                                                                
   TITEL  = PAW_PBE Hf_pv 06Sep2000                                             
   LULTRA =        F    use ultrasoft PP ?                                      
   IUNSCR =        1    unscreen: 0-lin 1-nonlin 2-no                           
   RPACOR =    2.500    partial core radius                                     
   POMASS =  178.490; ZVAL   =   10.000    mass and valenz                      
   RCORE  =    2.600    outmost cutoff radius                                   
   RWIGS  =    3.050; RWIGS  =    1.614    wigner-seitz radius (au A)           
   ENMAX  =  220.342; ENMIN  =  165.256 eV                                      
   RCLOC  =    2.212    cutoff for local pot                                    
   LCOR   =        T    correct aug charges                                     
   LPAW   =        T    paw PP                                                  
   EAUG   =  380.878                                                            
   DEXC   =    -.057                                                            
   RMAX   =    3.106    core radius for proj-oper                               
   RAUG   =    1.300    factor for augmentation sphere                          
   RDEP   =    2.681    radius for radial grids                                 
   QCUT   =   -4.024; QGAM   =    8.049    optimization parameters              
                                                                                
   Description                                                                  
     l     E      TYP  RCUT    TYP  RCUT                                        
     1   .000     23  2.500                                                     
     1   .000     23  2.500                                                     
     2   .000     23  2.500                                                     
     2   .000     23  2.500                                                     
     0   .000     23  2.600                                                     
     0   .000     23  2.600                                                     
     3   .000      7   .000                                                     
  local pseudopotential read in
  partial core-charges read in
  atomic valenz-charges read in
  non local Contribution for L=           1  read in
    real space projection operators read in
  non local Contribution for L=           1  read in
    real space projection operators read in
  non local Contribution for L=           2  read in
    real space projection operators read in
  non local Contribution for L=           2  read in
    real space projection operators read in
  non local Contribution for L=           0  read in
    real space projection operators read in
  non local Contribution for L=           0  read in
    real space projection operators read in
    PAW grid and wavefunctions read in
 
   number of l-projection  operators is LMAX  =           6
   number of lm-projection operators is LMMAX =          18
 
 POTCAR:   PAW_PBE N 08Apr2002                    
   VRHFIN =N: s2p3                                                              
   LEXCH  = PE                                                                  
   EATOM  =   264.5486 eV,   19.4438 Ry                                         
                                                                                
   TITEL  = PAW_PBE N 08Apr2002                                                 
   LULTRA =        F    use ultrasoft PP ?                                      
   IUNSCR =        0    unscreen: 0-lin 1-nonlin 2-no                           
   RPACOR =     .000    partial core radius                                     
   POMASS =   14.001; ZVAL   =    5.000    mass and valenz                      
   RCORE  =    1.500    outmost cutoff radius                                   
   RWIGS  =    1.400; RWIGS  =     .741    wigner-seitz radius (au A)           
   ENMAX  =  400.000; ENMIN  =  300.000 eV                                      
   ICORE  =        2    local potential                                         
   LCOR   =        T    correct aug charges                                     
   LPAW   =        T    paw PP                                                  
   EAUG   =  627.112                                                            
   DEXC   =     .000                                                            
   RMAX   =    2.247    core radius for proj-oper                               
   RAUG   =    1.300    factor for augmentation sphere                          
   RDEP   =    1.514    radius for radial grids                                 
   QCUT   =   -5.562; QGAM   =   11.124    optimization parameters              
                                                                                
   Description                                                                  
     l     E      TYP  RCUT    TYP  RCUT                                        
     0   .000     23  1.200                                                     
     0   .000     23  1.200                                                     
     1   .000     23  1.500                                                     
     1   .700     23  1.500                                                     
     2   .000      7  1.500                                                     
  local pseudopotential read in
  atomic valenz-charges read in
  non local Contribution for L=           0  read in
    real space projection operators read in
  non local Contribution for L=           0  read in
    real space projection operators read in
  non local Contribution for L=           1  read in
    real space projection operators read in
  non local Contribution for L=           1  read in
    real space projection operators read in
    PAW grid and wavefunctions read in
 
   number of l-projection  operators is LMAX  =           4
   number of lm-projection operators is LMMAX =           8
 
 POTCAR:   PAW_PBE C 08Apr2002                    
   VRHFIN =C: s2p2                                                              
   LEXCH  = PE                                                                  
   EATOM  =   147.1560 eV,   10.8157 Ry                                         
                                                                                
   TITEL  = PAW_PBE C 08Apr2002                                                 
   LULTRA =        F    use ultrasoft PP ?                                      
   IUNSCR =        0    unscreen: 0-lin 1-nonlin 2-no                           
   RPACOR =     .000    partial core radius                                     
   POMASS =   12.011; ZVAL   =    4.000    mass and valenz                      
   RCORE  =    1.500    outmost cutoff radius                                   
   RWIGS  =    1.630; RWIGS  =     .863    wigner-seitz radius (au A)           
   ENMAX  =  400.000; ENMIN  =  300.000 eV                                      
   ICORE  =        2    local potential                                         
   LCOR   =        T    correct aug charges                                     
   LPAW   =        T    paw PP                                                  
   EAUG   =  644.873                                                            
   DEXC   =     .000                                                            
   RMAX   =    2.266    core radius for proj-oper                               
   RAUG   =    1.300    factor for augmentation sphere                          
   RDEP   =    1.501    radius for radial grids                                 
   RDEPT  =    1.300    core radius for aug-charge                              
   QCUT   =   -5.516; QGAM   =   11.032    optimization parameters              
                                                                                
   Description                                                                  
     l     E      TYP  RCUT    TYP  RCUT                                        
     0   .000     23  1.200                                                     
     0   .000     23  1.200                                                     
     1   .000     23  1.500                                                     
     1  2.500     23  1.500                                                     
     2   .000      7  1.500                                                     
  local pseudopotential read in
  atomic valenz-charges read in
  non local Contribution for L=           0  read in
    real space projection operators read in
  non local Contribution for L=           0  read in
    real space projection operators read in
  non local Contribution for L=           1  read in
    real space projection operators read in
  non local Contribution for L=           1  read in
    real space projection operators read in
    PAW grid and wavefunctions read in
 
   number of l-projection  operators is LMAX  =           4
   number of lm-projection operators is LMMAX =           8
 
 POTCAR:   PAW_PBE Cr_pv 07Sep2000                
   VRHFIN =Cr : p6d5s1                                                          
   LEXCH  = PE                                                                  
   EATOM  =  1647.5667 eV,  121.0927 Ry                                         
                                                                                
   TITEL  = PAW_PBE Cr_pv 07Sep2000                                             
   LULTRA =        F    use ultrasoft PP ?                                      
   IUNSCR =        1    unscreen: 0-lin 1-nonlin 2-no                           
   RPACOR =    2.080    partial core radius                                     
   POMASS =   51.996; ZVAL   =   12.000    mass and valenz                      
   RCORE  =    2.300    outmost cutoff radius                                   
   RWIGS  =    2.500; RWIGS  =    1.323    wigner-seitz radius (au A)           
   ENMAX  =  265.683; ENMIN  =  199.262 eV                                      
   RCLOC  =    1.721    cutoff for local pot                                    
   LCOR   =        T    correct aug charges                                     
   LPAW   =        T    paw PP                                                  
   EAUG   =  519.424                                                            
   DEXC   =    -.003                                                            
   RMAX   =    2.829    core radius for proj-oper                               
   RAUG   =    1.300    factor for augmentation sphere                          
   RDEP   =    2.447    radius for radial grids                                 
   QCUT   =   -4.419; QGAM   =    8.838    optimization parameters              
                                                                                
   Description                                                                  
     l     E      TYP  RCUT    TYP  RCUT                                        
     1   .000     23  2.000                                                     
     1   .100     23  2.000                                                     
     2   .000     23  2.300                                                     
     2   .000     23  2.300                                                     
     0   .000     23  2.300                                                     
     0   .000     23  2.300                                                     
     3   .000      7   .000                                                     
  local pseudopotential read in
  partial core-charges read in
  atomic valenz-charges read in
  non local Contribution for L=           1  read in
    real space projection operators read in
  non local Contribution for L=           1  read in
    real space projection operators read in
  non local Contribution for L=           2  read in
    real space projection operators read in
  non local Contribution for L=           2  read in
    real space projection operators read in
  non local Contribution for L=           0  read in
    real space projection operators read in
  non local Contribution for L=           0  read in
    real space projection operators read in
    PAW grid and wavefunctions read in
 
   number of l-projection  operators is LMAX  =           6
   number of lm-projection operators is LMMAX =          18
 
 POTCAR:   PAW_PBE W_pv 06Sep2000                 
   VRHFIN =W : 5p6s5d                                                           
   LEXCH  = PE                                                                  
   EATOM  =  1260.0376 eV,   92.6101 Ry                                         
                                                                                
   TITEL  = PAW_PBE W_pv 06Sep2000                                              
   LULTRA =        F    use ultrasoft PP ?                                      
   IUNSCR =        1    unscreen: 0-lin 1-nonlin 2-no                           
   RPACOR =    2.330    partial core radius                                     
   POMASS =  183.850; ZVAL   =   12.000    mass and valenz                      
   RCORE  =    2.500    outmost cutoff radius                                   
   RWIGS  =    2.750; RWIGS  =    1.455    wigner-seitz radius (au A)           
   ENMAX  =  223.065; ENMIN  =  167.299 eV                                      
   RCLOC  =    2.147    cutoff for local pot                                    
   LCOR   =        T    correct aug charges                                     
   LPAW   =        T    paw PP                                                  
   EAUG   =  373.438                                                            
   DEXC   =    -.018                                                            
   RMAX   =    3.087    core radius for proj-oper                               
   RAUG   =    1.300    factor for augmentation sphere                          
   RDEP   =    2.539    radius for radial grids                                 
   QCUT   =   -4.049; QGAM   =    8.098    optimization parameters              
                                                                                
   Description                                                                  
     l     E      TYP  RCUT    TYP  RCUT                                        
     1   .000     23  2.500                                                     
     1  -.200     23  2.500                                                     
     2   .000     23  2.500                                                     
     2   .000     23  2.500                                                     
     0   .000     23  2.500                                                     
     0   .000     23  2.500                                                     
     3   .000      7   .000                                                     
  local pseudopotential read in
  partial core-charges read in
  atomic valenz-charges read in
  non local Contribution for L=           1  read in
    real space projection operators read in
  non local Contribution for L=           1  read in
    real space projection operators read in
  non local Contribution for L=           2  read in
    real space projection operators read in
  non local Contribution for L=           2  read in
    real space projection operators read in
  non local Contribution for L=           0  read in
    real space projection operators read in
  non local Contribution for L=           0  read in
    real space projection operators read in
    PAW grid and wavefunctions read in
 
   number of l-projection  operators is LMAX  =           6
   number of lm-projection operators is LMMAX =          18
 

 ----------------------------------------------------------------------------- 
|                                                                             |
|  ADVICE TO THIS USER RUNNING 'VASP/VAMP'   (HEAR YOUR MASTER'S VOICE ...):  |
|                                                                             |
|      You have a (more or less) 'large supercell' and for larger cells       |
|      it might be more efficient to use real space projection operators      |
|      So try LREAL= Auto  in the INCAR   file.                               |
|      Mind: If you want to do a very accurate calculations keep the          |
|      reciprocal projection scheme          (i.e. LREAL=.FALSE.)             |
|                                                                             |
 ----------------------------------------------------------------------------- 

 PAW_PBE Nb_sv 17Jan2003                :
 energy of atom  1       EATOM=-1555.1913
 kinetic energy error for atom=    0.0212 (will be added to EATOM!!)
 PAW_PBE Ta_pv 07Sep2000                :
 energy of atom  2       EATOM=-1045.8051
 kinetic energy error for atom=    0.0046 (will be added to EATOM!!)
 PAW_PBE Hf_pv 06Sep2000                :
 energy of atom  3       EATOM= -859.6195
 kinetic energy error for atom=    0.0038 (will be added to EATOM!!)
 PAW_PBE N 08Apr2002                    :
 energy of atom  4       EATOM= -264.5486
 kinetic energy error for atom=    0.0736 (will be added to EATOM!!)
 PAW_PBE C 08Apr2002                    :
 energy of atom  5       EATOM= -147.1560
 kinetic energy error for atom=    0.0288 (will be added to EATOM!!)
 PAW_PBE Cr_pv 07Sep2000                :
 energy of atom  6       EATOM=-1647.5667
 kinetic energy error for atom=    0.0284 (will be added to EATOM!!)
 PAW_PBE W_pv 06Sep2000                 :
 energy of atom  7       EATOM=-1260.0376
 kinetic energy error for atom=    0.0051 (will be added to EATOM!!)
 
 
 POSCAR: 94-HfNbTaCrW                            
  positions in direct lattice
  No initial velocities read in
 exchange correlation table for  LEXCH =        8
   RHO(1)=    0.500       N(1)  =     2000
   RHO(2)=  100.500       N(2)  =     4000
 


--------------------------------------------------------------------------------------------------------


 ion  position               nearest neighbor table
   1  0.997  0.992  0.999-  25 2.23  38 2.25  34 2.32  23 2.34  29 2.35  22 2.37  59 3.05  58 3.10
                             9 3.13  18 3.13  12 3.19  17 3.21  14 3.23   8 3.23  16 3.27
   2  0.254  0.997  0.249-  36 2.24  26 2.26  43 2.27  21 2.28  22 2.29  34 2.30  57 3.00  61 3.01
                            59 3.04  18 3.16  20 3.17   8 3.17  19 3.19  14 3.21  15 3.27
   3  0.248  0.502  0.250-  36 2.25  46 2.25  37 2.27  21 2.28  27 2.31  41 2.32  18 3.17  20 3.17
                            19 3.21  15 3.21  14 3.22  62 3.22   8 3.31
   4  0.505  0.497  0.998-  40 2.26  35 2.27  52 2.32  41 2.33  37 2.34  28 2.39  63 3.13  17 3.14
                             9 3.16  15 3.16  60 3.17  13 3.17  14 3.22  18 3.24
   5  0.505  0.246  0.747-  33 2.23  32 2.25  30 2.26  35 2.28  42 2.29  52 2.32  53 2.97  11 3.09
                            13 3.16  19 3.16  17 3.17  14 3.19
   6  0.994  0.504  0.498-  48 2.27  50 2.27  27 2.30  47 2.33  46 2.36  44 2.37  64 2.96  11 3.08
                            12 3.10  60 3.11  10 3.12  63 3.14  20 3.16   8 3.20  13 3.23  59 3.25
   7  0.500  0.755  0.748-  33 2.23  49 2.24  51 2.24  52 2.29  45 2.30  28 2.33  63 2.96  58 2.98
                            62 3.02  57 3.06  18 3.18  20 3.19  13 3.20  64 3.23   9 3.30
   8  0.994  0.236  0.264-  44 2.12  24 2.16  34 2.16  27 2.23  21 2.29  23 2.35  61 3.01  11 3.05
                            19 3.14  16 3.14   2 3.17   6 3.20  17 3.21   1 3.23  14 3.29   3 3.31
   9  0.757  0.741  0.011-  38 2.16  40 2.16  39 2.20  28 2.26  25 2.32  49 2.36  54 3.01  60 3.08
                            58 3.09  63 3.11   1 3.13  59 3.13   4 3.16  55 3.16  12 3.18  16 3.21
  10  0.002  0.255  0.739-  44 2.13  30 2.19  42 2.21  48 2.22  29 2.30  23 2.35  11 3.06  56 3.06
                            19 3.09   6 3.12  13 3.14  17 3.17  14 3.19  54 3.19  61 3.19  63 3.41
  11  0.753  0.262  0.505-  50 2.18  30 2.18  44 2.20  32 2.23  24 2.24  31 2.34   8 3.05  10 3.06
                             6 3.08   5 3.09  60 3.14  15 3.14  63 3.19  16 3.25  62 3.27  61 3.40
  12  0.995  0.745  0.745-  49 2.19  45 2.21  48 2.21  47 2.22  38 2.32  29 2.33  63 3.02  54 3.03
                            58 3.10   6 3.10  20 3.12  64 3.14   9 3.18   1 3.19  61 3.21  18 3.21
  13  0.257  0.495  0.745-  46 2.18  42 2.19  52 2.22  37 2.23  45 2.35  48 2.37  19 3.13  62 3.14
                            10 3.14  54 3.15   5 3.16  14 3.17   4 3.17  20 3.20   7 3.20   6 3.23
  14  0.248  0.248  0.997-  23 2.19  42 2.22  21 2.25  22 2.25  37 2.29  35 2.29  56 3.10  13 3.17
                            10 3.19   5 3.19  53 3.20   2 3.21   3 3.22   4 3.22   1 3.23  54 3.25
  15  0.508  0.257  0.254-  32 2.17  24 2.19  41 2.23  35 2.25  21 2.31  26 2.33  60 3.10  11 3.14
                             4 3.16  19 3.17  17 3.20   3 3.21  16 3.25   2 3.27  14 3.28  53 3.28
  16  0.749  0.988  0.270-  31 2.16  26 2.17  34 2.22  39 2.26  25 2.30  24 2.34  59 2.94  64 3.07
                            55 3.14   8 3.14  57 3.14  61 3.19   9 3.21  15 3.25  11 3.25   1 3.27
  17  0.757  0.256  0.996-  23 2.20  30 2.21  40 2.24  35 2.26  24 2.32  25 2.35  53 3.08   4 3.14
                            54 3.15  10 3.17   5 3.17  15 3.20   8 3.21   1 3.21  58 3.25  60 3.37
  18  0.248  0.750  1.000-  38 2.23  36 2.23  45 2.23  37 2.26  22 2.27  28 2.30  54 3.11   1 3.13
                             2 3.16   3 3.17   7 3.18  12 3.21  59 3.23  13 3.24   4 3.24  55 3.26
  19  0.253  0.248  0.500-  42 2.22  21 2.25  32 2.26  43 2.27  44 2.28  46 2.29  61 3.06  56 3.08
                            10 3.09  13 3.13   8 3.14  57 3.14   5 3.16  15 3.17   2 3.19   3 3.21
  20  0.245  0.750  0.500-  45 2.24  36 2.24  43 2.24  46 2.27  47 2.28  51 2.33  57 2.97  61 2.98
                            59 3.08  62 3.08  12 3.12  55 3.16   6 3.16   2 3.17   3 3.17   7 3.19
  21  0.250  0.249  0.248-  14 2.25  19 2.25   3 2.28   2 2.28   8 2.29  15 2.31
  22  0.261  1.000  0.993-  56 2.22  14 2.25  18 2.27  53 2.28   2 2.29   1 2.37
  23  0.003  0.250  0.001-  14 2.19  17 2.20   1 2.34  10 2.35   8 2.35  54 2.35
  24  0.753  0.246  0.255-   8 2.16  15 2.19  11 2.24  17 2.32  16 2.34  60 2.44
  25  0.748  0.997  0.012-  53 2.10  58 2.22   1 2.23  16 2.30   9 2.32  17 2.35
  26  0.507  1.000  0.247-  16 2.17  57 2.26   2 2.26  15 2.33  55 2.36  53 2.38
  27  0.991  0.481  0.241-   8 2.23  54 2.29   6 2.30  60 2.31   3 2.31
  28  0.505  0.761  0.009-  55 2.25   9 2.26  53 2.30  18 2.30   7 2.33   4 2.39
  29  0.989  0.002  0.737-  61 2.18  58 2.22  56 2.23  10 2.30  12 2.33   1 2.35
  30  0.757  0.244  0.749-  11 2.18  10 2.19  17 2.21   5 2.26  58 2.41  63 2.58
  31  0.736  0.004  0.511-  16 2.16  58 2.28  57 2.30  11 2.34  64 2.50  61 2.57
  32  0.506  0.233  0.495-  15 2.17  11 2.23   5 2.25  19 2.26  57 2.27
  33  0.500  0.001  0.735-  57 2.14  58 2.19  53 2.21   5 2.23   7 2.23  56 2.35
  34  0.997  0.998  0.259-  59 2.01  61 2.13   8 2.16  16 2.22   2 2.30   1 2.32
  35  0.504  0.247  0.003-  53 2.12  15 2.25  17 2.26   4 2.27   5 2.28  14 2.29
  36  0.251  0.750  0.249-  18 2.23  20 2.24   2 2.24   3 2.25  55 2.26  59 2.27
  37  0.243  0.501  0.995-  54 2.19  13 2.23  18 2.26   3 2.27  14 2.29   4 2.34
  38  0.998  0.743  0.005-  54 2.12   9 2.16  18 2.23   1 2.25  59 2.31  12 2.32
  39  0.756  0.739  0.258-  60 2.04  64 2.09  59 2.19   9 2.20  55 2.26  16 2.26
  40  0.758  0.503  0.003-  54 2.15   9 2.16  17 2.24   4 2.26  60 2.37  63 2.38
  41  0.507  0.503  0.259-  60 2.05  55 2.14  62 2.16  15 2.23   3 2.32   4 2.33
  42  0.249  0.253  0.749-  13 2.19  56 2.20  10 2.21  14 2.22  19 2.22   5 2.29
  43  0.244  0.998  0.503-  61 1.97  57 2.11  56 2.18  20 2.24  19 2.27   2 2.27
  44  0.998  0.242  0.501-   8 2.12  10 2.13  11 2.20  61 2.23  19 2.28   6 2.37
  45  0.242  0.753  0.750-  12 2.21  18 2.23  20 2.24   7 2.30  56 2.33  13 2.35
  46  0.258  0.501  0.501-  13 2.18  62 2.22   3 2.25  20 2.27  19 2.29   6 2.36
  47  0.990  0.762  0.497-  59 2.12  64 2.13  61 2.16  12 2.22  20 2.28   6 2.33
  48  0.992  0.501  0.751-  54 2.10  12 2.21  10 2.22   6 2.27  63 2.28  13 2.37
  49  0.750  0.749  0.748-  63 2.00  58 2.09  12 2.19   7 2.24  64 2.30   9 2.36
  50  0.740  0.502  0.501-  64 2.06  60 2.10  62 2.11  63 2.14  11 2.18   6 2.27
  51  0.506  0.750  0.497-  62 2.00  57 2.13  55 2.13  64 2.23   7 2.24  20 2.33
  52  0.505  0.502  0.739-  63 2.10  62 2.16  13 2.22   7 2.29   4 2.32   5 2.32
  53  0.516  0.014  0.981-  25 2.10  35 2.12  33 2.21  22 2.28  28 2.30  26 2.38  58 2.81   5 2.97
                            17 3.08  14 3.20  15 3.28   9 3.29  16 3.33  18 3.39
  54  0.998  0.510  0.986-  48 2.10  38 2.12  40 2.15  37 2.19  27 2.29  23 2.35   9 3.01  12 3.03
                            18 3.11  13 3.15  17 3.15  10 3.19  63 3.22  14 3.25
  55  0.504  0.739  0.259-  51 2.13  41 2.14  28 2.25  39 2.26  36 2.26  26 2.36  62 2.88  60 2.90
                            64 3.06  57 3.07  16 3.14  20 3.16   9 3.16  18 3.26
  56  0.238  0.011  0.746-  43 2.18  42 2.20  22 2.22  29 2.23  45 2.33  33 2.35  61 2.95  10 3.06
                            19 3.08  14 3.10  57 3.10  20 3.22  12 3.24  18 3.28
  57  0.480  0.983  0.497-  43 2.11  51 2.13  33 2.14  26 2.26  32 2.27  31 2.30  20 2.97   2 3.00
                             7 3.06  55 3.07  56 3.10  19 3.14  16 3.14  15 3.31
  58  0.743  0.979  0.765-  49 2.09  33 2.19  25 2.22  29 2.22  31 2.28  30 2.41  53 2.81   7 2.98
                             9 3.09  12 3.10   1 3.10  17 3.25  64 3.32
  59  0.999  0.776  0.261-  34 2.01  47 2.12  39 2.19  36 2.27  38 2.31  61 2.91  16 2.94  64 3.03
                             2 3.04   1 3.05  20 3.08   9 3.13  18 3.23   6 3.25  60 3.34
  60  0.736  0.515  0.267-  39 2.04  41 2.05  50 2.10  27 2.31  40 2.37  24 2.44  64 2.80  55 2.90
                            62 2.92   9 3.08  15 3.10   6 3.11  11 3.14   4 3.17  59 3.34  17 3.37
  61  0.024  0.998  0.496-  43 1.97  34 2.13  47 2.16  29 2.18  44 2.23  31 2.57  59 2.91  56 2.95
                            20 2.98   8 3.01   2 3.01  19 3.06  16 3.19  10 3.19  12 3.21  11 3.40
  62  0.505  0.528  0.499-  51 2.00  50 2.11  52 2.16  41 2.16  46 2.22  64 2.87  55 2.88  60 2.92
                            63 2.99   7 3.02  20 3.08  13 3.14   3 3.22  11 3.27  15 3.29  19 3.40
  63  0.739  0.528  0.738-  49 2.00  52 2.10  50 2.14  48 2.28  40 2.38  30 2.58  64 2.87   7 2.96
                            62 2.99  12 3.02   9 3.11   4 3.13   6 3.14  11 3.19  54 3.22  17 3.38
  64  0.754  0.729  0.491-  50 2.06  39 2.09  47 2.13  51 2.23  49 2.30  31 2.50  60 2.80  63 2.87
                            62 2.87   6 2.96  59 3.03  55 3.06  16 3.07  12 3.14   7 3.23  58 3.32
 
  LATTYP: Found a triclinic cell.
 ALAT       =     8.9324998856
 B/A-ratio  =     1.4171239146
 C/A-ratio  =     1.7368823005
 COS(alpha) =     0.0000356980
 COS(beta)  =     0.5733043206
 COS(gamma) =     0.7081905896
  
  Lattice vectors:
  
 A1 = (   8.9324998856,   0.0000000000,   0.0000000000)
 A2 = (   8.9646016880,  -0.0157434634,   8.9371280720)
 A3 = (   8.8946450873,  -9.0398548755,  -8.9371280720)


Analysis of symmetry for initial positions (statically):
=====================================================================
 Subroutine PRICEL returns:
 Original cell was already a primitive cell.
 

 Routine SETGRP: Setting up the symmetry group for a 
 triclinic supercell.


 Subroutine GETGRP returns: Found  1 space group operations
 (whereof  1 operations were pure point group operations)
 out of a pool of  2 trial point group operations.


The static configuration has the point symmetry C_1 .


Analysis of symmetry for dynamics (positions and initial velocities):
=====================================================================
 Subroutine PRICEL returns:
 Original cell was already a primitive cell.
 

 Routine SETGRP: Setting up the symmetry group for a 
 triclinic supercell.


 Subroutine GETGRP returns: Found  1 space group operations
 (whereof  1 operations were pure point group operations)
 out of a pool of  2 trial point group operations.


The dynamic configuration has the point symmetry C_1 .


 Subroutine INISYM returns: Found  1 space group operations
 (whereof  1 operations are pure point group operations),
 and found     1 'primitive' translations

 
 
 KPOINTS: HECN                                    

Automatic generation of k-mesh.
Space group operators:
 irot       det(A)        alpha          n_x          n_y          n_z        tau_x        tau_y        tau_z
    1     1.000000     0.000001     1.000000     0.000000     0.000000     0.000000     0.000000     0.000000
 
 Subroutine IBZKPT returns following result:
 ===========================================
 
 Found     14 irreducible k-points:
 
 Following reciprocal coordinates:
            Coordinates               Weight
  0.000000  0.000000  0.000000      1.000000
  0.333333  0.000000  0.000000      2.000000
  0.000000  0.333333  0.000000      2.000000
  0.333333  0.333333  0.000000      2.000000
 -0.333333  0.333333  0.000000      2.000000
  0.000000  0.000000  0.333333      2.000000
  0.333333  0.000000  0.333333      2.000000
 -0.333333  0.000000  0.333333      2.000000
  0.000000  0.333333  0.333333      2.000000
  0.333333  0.333333  0.333333      2.000000
 -0.333333  0.333333  0.333333      2.000000
  0.000000 -0.333333  0.333333      2.000000
  0.333333 -0.333333  0.333333      2.000000
 -0.333333 -0.333333  0.333333      2.000000
 
 Following cartesian coordinates:
            Coordinates               Weight
  0.000000  0.000000  0.000000      1.000000
  0.037317 -0.000024 -0.000134      2.000000
  0.000000  0.036810  0.000065      2.000000
  0.037317  0.036786 -0.000069      2.000000
 -0.037317  0.036833  0.000199      2.000000
  0.000000  0.000000  0.037298      2.000000
  0.037317 -0.000024  0.037164      2.000000
 -0.037317  0.000024  0.037432      2.000000
  0.000000  0.036810  0.037362      2.000000
  0.037317  0.036786  0.037228      2.000000
 -0.037317  0.036833  0.037497      2.000000
  0.000000 -0.036810  0.037233      2.000000
  0.037317 -0.036833  0.037099      2.000000
 -0.037317 -0.036786  0.037367      2.000000
 


--------------------------------------------------------------------------------------------------------




 Dimension of arrays:
   k-points           NKPTS =     14   k-points in BZ     NKDIM =     14   number of bands    NBANDS=    312
   number of dos      NEDOS =    301   number of ions     NIONS =     64
   non local maximal  LDIM  =      6   non local SUM 2l+1 LMDIM =     18
   total plane-waves  NPLWV = 110592
   max r-space proj   IRMAX =      1   max aug-charges    IRDMAX=   8931
   dimension x,y,z NGX =    48 NGY =   48 NGZ =   48
   dimension x,y,z NGXF=    96 NGYF=   96 NGZF=   96
   support grid    NGXF=    96 NGYF=   96 NGZF=   96
   ions per type =               7   6   7  13  19   6   6
   NGX,Y,Z   is equivalent  to a cutoff of   8.93,  8.81,  8.93 a.u.
   NGXF,Y,Z  is equivalent  to a cutoff of  17.87, 17.62, 17.86 a.u.

 SYSTEM =  HEBCN                                   
 POSCAR =  94-HfNbTaCrW                            

 Startparameter for this run:
   NWRITE =      2    write-flag & timer
   PREC   = normal    normal or accurate (medium, high low for compatibility)
   ISTART =      0    job   : 0-new  1-cont  2-samecut
   ICHARG =      2    charge: 1-file 2-atom 10-const
   ISPIN  =      1    spin polarized calculation?
   LNONCOLLINEAR =      F non collinear calculations
   LSORBIT =      F    spin-orbit coupling
   INIWAV =      1    electr: 0-lowe 1-rand  2-diag
   LASPH  =      F    aspherical Exc in radial PAW
   METAGGA=      F    non-selfconsistent MetaGGA calc.

 Electronic Relaxation 1
   ENCUT  =  400.0 eV  29.40 Ry    5.42 a.u.  14.57 14.77 14.57*2*pi/ulx,y,z
   ENINI  =  400.0     initial cutoff
   ENAUG  =  644.9 eV  augmentation charge cutoff
   NELM   =     60;   NELMIN=  2; NELMDL= -5     # of ELM steps 
   EDIFF  = 0.1E-04   stopping-criterion for ELM
   LREAL  =      F    real-space projection
   NLSPLINE    = F    spline interpolate recip. space projectors
   LCOMPAT=      F    compatible to vasp.4.4
   GGA_COMPAT  = T    GGA compatible to vasp.4.4-vasp.4.6
   LMAXPAW     = -100 max onsite density
   LMAXMIX     =    2 max onsite mixed and CHGCAR
   VOSKOWN=      0    Vosko Wilk Nusair interpolation
   ROPT   =    0.00000   0.00000   0.00000   0.00000
   ROPT   =    0.00000   0.00000   0.00000
 Ionic relaxation
   EDIFFG = -.1E-01   stopping-criterion for IOM
   NSW    =      0    number of steps for IOM
   NBLOCK =      1;   KBLOCK =      1    inner block; outer block 
   IBRION =     -1    ionic relax: 0-MD 1-quasi-New 2-CG
   NFREE  =      0    steps in history (QN), initial steepest desc. (CG)
   ISIF   =      2    stress and relaxation
   IWAVPR =     10    prediction:  0-non 1-charg 2-wave 3-comb
   ISYM   =      2    0-nonsym 1-usesym 2-fastsym
   LCORR  =      T    Harris-Foulkes like correction to forces

   POTIM  = 0.5000    time-step for ionic-motion
   TEIN   =    0.0    initial temperature
   TEBEG  =    0.0;   TEEND  =   0.0 temperature during run
   SMASS  =  -3.00    Nose mass-parameter (am)
   estimated Nose-frequenzy (Omega)   =  0.10E-29 period in steps =****** mass=  -0.182E-26a.u.
   SCALEE = 1.0000    scale energy and forces
   NPACO  =    256;   APACO  = 16.0  distance and # of slots for P.C.
   PSTRESS=    0.0 pullay stress

  Mass of Ions in am
   POMASS =  92.91180.95178.49 14.00 12.01 52.00183.85
  Ionic Valenz
   ZVAL   =  13.00 11.00 10.00  5.00  4.00 12.00 12.00
  Atomic Wigner-Seitz radii
   RWIGS  =  -1.00 -1.00 -1.00 -1.00 -1.00 -1.00 -1.00
  virtual crystal weights 
   VCA    =   1.00  1.00  1.00  1.00  1.00  1.00  1.00
   NELECT =     512.0000    total number of electrons
   NUPDOWN=      -1.0000    fix difference up-down

 DOS related values:
   EMIN   =  10.00;   EMAX   =-10.00  energy-range for DOS
   EFERMI =   0.00
   ISMEAR =     0;   SIGMA  =   0.10  broadening in eV -4-tet -1-fermi 0-gaus

 Electronic relaxation 2 (details)
   IALGO  =     68    algorithm
   LDIAG  =      T    sub-space diagonalisation (order eigenvalues)
   LSUBROT=      F    optimize rotation matrix (better conditioning)
   TURBO    =      0    0=normal 1=particle mesh
   IRESTART =      0    0=no restart 2=restart with 2 vectors
   NREBOOT  =      0    no. of reboots
   NMIN     =      0    reboot dimension
   EREF     =   0.00    reference energy to select bands
   IMIX   =      4    mixing-type and parameters
     AMIX     =   0.40;   BMIX     =  1.00
     AMIX_MAG =   1.60;   BMIX_MAG =  1.00
     AMIN     =   0.10
     WC   =   100.;   INIMIX=   1;  MIXPRE=   1;  MAXMIX= -45

 Intra band minimization:
   WEIMIN = 0.0000     energy-eigenvalue tresh-hold
   EBREAK =  0.80E-08  absolut break condition
   DEPER  =   0.30     relativ break condition  

   TIME   =   0.40     timestep for ELM

  volume/ion in A,a.u.               =      11.30        76.23
  Fermi-wavevector in a.u.,A,eV,Ry     =   1.459269  2.757619 28.973154  2.129467
  Thomas-Fermi vector in A             =   2.575856
 
 Write flags
   LWAVE        =      T    write WAVECAR
   LDOWNSAMPLE  =      F    k-point downsampling of WAVECAR
   LCHARG       =      T    write CHGCAR
   LVTOT        =      F    write LOCPOT, total local potential
   LVHAR        =      F    write LOCPOT, Hartree potential only
   LELF         =      F    write electronic localiz. function (ELF)
   LORBIT       =      0    0 simple, 1 ext, 2 COOP (PROOUT), +10 PAW based schemes


 Dipole corrections
   LMONO  =      F    monopole corrections only (constant potential shift)
   LDIPOL =      F    correct potential (dipole corrections)
   IDIPOL =      0    1-x, 2-y, 3-z, 4-all directions 
   EPSILON=  1.0000000 bulk dielectric constant

 Exchange correlation treatment:
   GGA     =    --    GGA type
   LEXCH   =     8    internal setting for exchange type
   VOSKOWN=      0    Vosko Wilk Nusair interpolation
   LHFCALC =     F    Hartree Fock is set to
   LHFONE  =     F    Hartree Fock one center treatment
   AEXX    =    0.0000 exact exchange contribution

 Linear response parameters
   LEPSILON=     F    determine dielectric tensor
   LRPA    =     F    only Hartree local field effects (RPA)
   LNABLA  =     F    use nabla operator in PAW spheres
   LVEL    =     F    velocity operator in full k-point grid
   LINTERFAST=   F  fast interpolation
   KINTER  =     0    interpolate to denser k-point grid
   CSHIFT  =0.1000    complex shift for real part using Kramers Kronig
   OMEGAMAX=  -1.0    maximum frequency
   DEG_THRESHOLD= 0.2000000E-02 threshold for treating states as degnerate
   RTIME   =   -0.100 relaxation time in fs
  (WPLASMAI=    0.000 imaginary part of plasma frequency in eV, 0.658/RTIME)
   DFIELD  = 0.0000000 0.0000000 0.0000000 field for delta impulse in time
 
 Orbital magnetization related:
   ORBITALMAG=     F  switch on orbital magnetization
   LCHIMAG   =     F  perturbation theory with respect to B field
   DQ        =  0.001000  dq finite difference perturbation B field
   LLRAUG    =     F  two centre corrections for induced B field



--------------------------------------------------------------------------------------------------------


 Static calculation
 charge density and potential will be updated during run
 non-spin polarized calculation
 RMM-DIIS sequential band-by-band and
  variant of blocked Davidson during initial phase
 perform sub-space diagonalisation
    before iterative eigenvector-optimisation
 modified Broyden-mixing scheme, WC =      100.0
 initial mixing is a Kerker type mixing with AMIX =  0.4000 and BMIX =      1.0000
 Hartree-type preconditioning will be used
 using additional bands           56
 reciprocal scheme for non local part
 use partial core corrections
 calculate Harris-corrections to forces 
   (improved forces if not selfconsistent)
 use gradient corrections 
 use of overlap-Matrix (Vanderbilt PP)
 Gauss-broadening in eV      SIGMA  =   0.10


--------------------------------------------------------------------------------------------------------


  energy-cutoff  :      400.00
  volume of cell :      722.92
      direct lattice vectors                 reciprocal lattice vectors
     8.932499886  0.000000000  0.000000000     0.111950743 -0.000071122 -0.000402248
     0.005752996  9.055598339  0.000000000     0.000000000  0.110428926  0.000194529
     0.032101802 -0.015743463  8.937128072     0.000000000  0.000000000  0.111892768

  length of vectors
     8.932499886  9.055600166  8.937199593     0.111951488  0.110429097  0.111892768


 
 k-points in units of 2pi/SCALE and weight: HECN                                    
   0.00000000  0.00000000  0.00000000       0.037
   0.03731691 -0.00002371 -0.00013408       0.074
   0.00000000  0.03680964  0.00006484       0.074
   0.03731691  0.03678593 -0.00006924       0.074
  -0.03731691  0.03683335  0.00019893       0.074
   0.00000000  0.00000000  0.03729759       0.074
   0.03731691 -0.00002371  0.03716351       0.074
  -0.03731691  0.00002371  0.03743167       0.074
   0.00000000  0.03680964  0.03736243       0.074
   0.03731691  0.03678593  0.03722835       0.074
  -0.03731691  0.03683335  0.03749652       0.074
   0.00000000 -0.03680964  0.03723275       0.074
   0.03731691 -0.03683335  0.03709866       0.074
  -0.03731691 -0.03678593  0.03736683       0.074
 
 k-points in reciprocal lattice and weights: HECN                                    
   0.00000000  0.00000000  0.00000000       0.037
   0.33333333  0.00000000  0.00000000       0.074
   0.00000000  0.33333333  0.00000000       0.074
   0.33333333  0.33333333  0.00000000       0.074
  -0.33333333  0.33333333  0.00000000       0.074
   0.00000000  0.00000000  0.33333333       0.074
   0.33333333  0.00000000  0.33333333       0.074
  -0.33333333  0.00000000  0.33333333       0.074
   0.00000000  0.33333333  0.33333333       0.074
   0.33333333  0.33333333  0.33333333       0.074
  -0.33333333  0.33333333  0.33333333       0.074
   0.00000000 -0.33333333  0.33333333       0.074
   0.33333333 -0.33333333  0.33333333       0.074
  -0.33333333 -0.33333333  0.33333333       0.074
 
 position of ions in fractional coordinates (direct lattice) 
   0.99688001  0.99204997  0.99924002
   0.25398003  0.99714995  0.24912000
   0.24803003  0.50165000  0.24955001
   0.50501006  0.49745998  0.99834003
   0.50479003  0.24631001  0.74710002
   0.99427992  0.50449999  0.49779000
   0.49950005  0.75481999  0.74817004
   0.99437004  0.23617001  0.26379999
   0.75718000  0.74102998  0.01100000
   0.00201000  0.25541000  0.73894001
   0.75307001  0.26163001  0.50533002
   0.99514004  0.74492004  0.74511997
   0.25679999  0.49462002  0.74545002
   0.24788999  0.24839000  0.99657997
   0.50833000  0.25676999  0.25376001
   0.74879004  0.98787999  0.26967001
   0.75719000  0.25603001  0.99591997
   0.24762001  0.74973999  0.99974006
   0.25272001  0.24823001  0.50015003
   0.24457999  0.75048999  0.49983999
   0.24982001  0.24942998  0.24825000
   0.26146999  0.99984002  0.99295996
   0.00281000  0.25024000  0.00130000
   0.75313998  0.24617000  0.25492002
   0.74767001  0.99748000  0.01202000
   0.50714994  0.99977000  0.24673000
   0.99051999  0.48088002  0.24100998
   0.50519005  0.76130999  0.00855000
   0.98896989  0.00202000  0.73708999
   0.75744996  0.24437997  0.74896999
   0.73632001  0.00417000  0.51063000
   0.50563996  0.23264999  0.49544997
   0.50008998  0.00061000  0.73471998
   0.99720000  0.99771992  0.25899999
   0.50427997  0.24673000  0.00262000
   0.25133999  0.74958002  0.24910999
   0.24328000  0.50072997  0.99510994
   0.99837005  0.74313996  0.00460000
   0.75633000  0.73891003  0.25767000
   0.75839004  0.50315998  0.00288000
   0.50700002  0.50333002  0.25878999
   0.24900999  0.25315000  0.74854000
   0.24446000  0.99823996  0.50287998
   0.99804009  0.24229999  0.50128003
   0.24177002  0.75340997  0.75018002
   0.25841001  0.50062002  0.50129001
   0.99000004  0.76215003  0.49746000
   0.99203996  0.50055999  0.75138002
   0.75036005  0.74888000  0.74756004
   0.74036002  0.50197000  0.50067003
   0.50575006  0.74958002  0.49720000
   0.50501003  0.50217998  0.73912003
   0.51588997  0.01358000  0.98075008
   0.99841994  0.50976998  0.98613004
   0.50379003  0.73926997  0.25905001
   0.23780002  0.01082000  0.74607998
   0.47957999  0.98308000  0.49717999
   0.74279003  0.97869994  0.76450995
   0.99864998  0.77573999  0.26102000
   0.73551001  0.51468004  0.26666001
   0.02362000  0.99783001  0.49557002
   0.50539000  0.52833005  0.49917999
   0.73876003  0.52828003  0.73814999
   0.75400003  0.72937999  0.49116997
 
 position of ions in cartesian coordinates  (Angst):
   8.94241524  8.96787453  8.93033600
   2.28241038  9.02586746  2.22641730
   2.22642517  4.53881216  2.23026037
   4.54591274  4.48908043  8.92229271
   4.53443718  2.21872258  6.67692852
   8.90028763  4.56071234  4.44881297
   4.49014425  6.82356787  6.68649148
   8.89203739  2.13450765  2.35761428
   6.76812649  6.71029663  0.09830841
   0.04314500  2.30125690  6.60400152
   6.74452496  2.36126065  4.51619912
   8.91729355  6.73396587  6.65923262
   2.32064175  4.46734428  6.66218233
   2.24769831  2.23363041  8.90656281
   4.55028104  2.32121086  2.26788568
   6.70290708  8.94159889  2.41007543
   6.79704333  2.30282569  8.90066433
   2.24827242  6.77360487  8.93480492
   2.27490521  2.23999715  4.46990490
   2.20507407  6.78826666  4.46713400
   2.24092150  2.25482941  2.21864200
   2.37320853  9.03851700  8.87421036
   0.02658169  2.26605249  0.01161827
   6.73702240  2.22520327  2.27825284
   6.68468666  9.03258896  0.10742428
   4.54378891  9.04963112  2.20505762
   8.85832310  4.35086202  2.15393710
   4.51726437  6.89398288  0.07641245
   8.85764694  0.00668796  6.58746767
   6.79137087  2.20121551  6.69364070
   6.59359455  0.02972276  4.56356573
   4.53387213  2.09898472  4.42789984
   4.49064303 -0.00604312  6.56628657
   8.92154312  9.03087330  2.31471610
   4.50598431  2.23424649  0.02341528
   2.25740362  6.78397369  2.22632789
   2.20792413  4.51874303  8.89342499
   8.92236328  6.72950459  0.04111079
   6.76844025  6.68721580  2.30282975
   6.77730608  4.55636930  0.02573893
   4.53998089  4.55388022  2.31283927
   2.24976754  2.28064013  6.68979787
   2.20552516  9.03174305  4.49430275
   8.93247891  2.18627954  4.48000384
   2.18802714  6.81076765  6.70445490
   2.32721973  4.52552175  4.48009300
   8.86352921  6.89389277  4.44586372
   8.88839722  4.52104092  6.71517944
   6.73089742  6.76978731  6.68103981
   6.63222599  4.53775645  4.47455215
   4.53788566  6.78006792  4.44354010
   4.53761816  4.53590393  6.60561037
   4.63974905  0.10753461  8.76508904
   8.95297527  4.60074711  8.81317044
   4.51267337  6.69045353  2.31516313
   2.14816141  0.08623569  6.66781235
   4.30546427  8.89455033  4.44336128
   6.66514444  8.85067749  6.83252334
   8.93328286  7.02068042  2.33276915
   6.58146429  4.65653754  2.38317466
   0.23263484  9.02814579  4.42897272
   4.53346014  4.77648592  4.46123552
   6.62570906  4.77227068  6.59694100
   6.75506878  6.59723949  4.38964892
 


--------------------------------------------------------------------------------------------------------


 k-point  1 :   0.0000 0.0000 0.0000  plane waves:   13133
 k-point  2 :   0.3333 0.0000 0.0000  plane waves:   13140
 k-point  3 :   0.0000 0.3333 0.0000  plane waves:   13141
 k-point  4 :   0.3333 0.3333 0.0000  plane waves:   13123
 k-point  5 :  -0.3333 0.3333 0.0000  plane waves:   13128
 k-point  6 :   0.0000 0.0000 0.3333  plane waves:   13144
 k-point  7 :   0.3333 0.0000 0.3333  plane waves:   13120
 k-point  8 :  -0.3333 0.0000 0.3333  plane waves:   13130
 k-point  9 :   0.0000 0.3333 0.3333  plane waves:   13125
 k-point 10 :   0.3333 0.3333 0.3333  plane waves:   13131
 k-point 11 :  -0.3333 0.3333 0.3333  plane waves:   13128
 k-point 12 :   0.0000-0.3333 0.3333  plane waves:   13119
 k-point 13 :   0.3333-0.3333 0.3333  plane waves:   13132
 k-point 14 :  -0.3333-0.3333 0.3333  plane waves:   13135

 maximum and minimum number of plane-waves per node :     13144    13119

 maximum number of plane-waves:     13144
 maximum index in each direction: 
   IXMAX=   14   IYMAX=   15   IZMAX=   14
   IXMIN=  -14   IYMIN=  -15   IZMIN=  -14


 serial   3D FFT for wavefunctions
 parallel 3D FFT for charge:
    minimum data exchange during FFTs selected (reduces bandwidth)


 total amount of memory used by VASP MPI-rank0   280593. kBytes
=======================================================================

   base      :      30000. kBytes
   nonl-proj :     199068. kBytes
   fftplans  :       1726. kBytes
   grid      :       8060. kBytes
   one-center:        995. kBytes
   wavefun   :      40744. kBytes
 
     INWAV:  cpu time    0.0000: real time    0.0000
 Broyden mixing: mesh for mixing (old mesh)
   NGX = 29   NGY = 29   NGZ = 29
  (NGX  = 96   NGY  = 96   NGZ  = 96)
  gives a total of  24389 points

 initial charge density was supplied:
 charge density of overlapping atoms calculated
 number of electron     512.0000000 magnetization 
 keeping initial charge density in first step


--------------------------------------------------------------------------------------------------------


 Maximum index for augmentation-charges          501 (set IRDMAX)


--------------------------------------------------------------------------------------------------------


 First call to EWALD:  gamma=   0.197
 Maximum number of real-space cells 3x 3x 3
 Maximum number of reciprocal cells 3x 3x 3

    FEWALD:  cpu time    0.0030: real time    0.0031


--------------------------------------- Iteration      1(   1)  ---------------------------------------


    POTLOK:  cpu time    0.0338: real time    0.0406
    SETDIJ:  cpu time    0.0084: real time    0.0087
     EDDAV:  cpu time   33.4836: real time   34.1955
       DOS:  cpu time    0.0014: real time    0.0014
    --------------------------------------------
      LOOP:  cpu time   33.5272: real time   34.2462

 eigenvalue-minimisations  :  8736
 total energy-change (2. order) : 0.6385098E+04  (-0.2167913E+05)
 number of electron     512.0000000 magnetization 
 augmentation part      512.0000000 magnetization 

 Free energy of the ion-electron system (eV)
  ---------------------------------------------------
  alpha Z        PSCENC =      4311.70706476
  Ewald energy   TEWEN  =    -41855.10752452
  -Hartree energ DENC   =     -7147.31153054
  -exchange      EXHF   =         0.00000000
  -V(xc)+E(xc)   XCENC  =      1758.09057647
  PAW double counting   =     28559.57951195   -28491.33313261
  entropy T*S    EENTRO =        -0.08194097
  eigenvalues    EBANDS =      2392.23412349
  atomic energy  EATOM  =     46857.32045255
  Solvation  Ediel_sol  =         0.00000000
  ---------------------------------------------------
  free energy    TOTEN  =      6385.09760058 eV

  energy without entropy =     6385.17954155  energy(sigma->0) =     6385.13857107


--------------------------------------------------------------------------------------------------------




--------------------------------------- Iteration      1(   2)  ---------------------------------------


     EDDAV:  cpu time   34.9490: real time   35.0964
       DOS:  cpu time    0.0013: real time    0.0013
    --------------------------------------------
      LOOP:  cpu time   34.9503: real time   35.0976

 eigenvalue-minimisations  :  9072
 total energy-change (2. order) :-0.6128458E+04  (-0.5911783E+04)
 number of electron     512.0000000 magnetization 
 augmentation part      512.0000000 magnetization 

 Free energy of the ion-electron system (eV)
  ---------------------------------------------------
  alpha Z        PSCENC =      4311.70706476
  Ewald energy   TEWEN  =    -41855.10752452
  -Hartree energ DENC   =     -7147.31153054
  -exchange      EXHF   =         0.00000000
  -V(xc)+E(xc)   XCENC  =      1758.09057647
  PAW double counting   =     28559.57951195   -28491.33313261
  entropy T*S    EENTRO =        -0.11499878
  eigenvalues    EBANDS =     -3736.19056409
  atomic energy  EATOM  =     46857.32045255
  Solvation  Ediel_sol  =         0.00000000
  ---------------------------------------------------
  free energy    TOTEN  =       256.63985519 eV

  energy without entropy =      256.75485397  energy(sigma->0) =      256.69735458


--------------------------------------------------------------------------------------------------------




--------------------------------------- Iteration      1(   3)  ---------------------------------------


     EDDAV:  cpu time   48.3128: real time   49.6311
       DOS:  cpu time    0.0012: real time    0.0013
    --------------------------------------------
      LOOP:  cpu time   48.3141: real time   49.6324

 eigenvalue-minimisations  : 13776
 total energy-change (2. order) :-0.9494464E+03  (-0.8956583E+03)
 number of electron     512.0000000 magnetization 
 augmentation part      512.0000000 magnetization 

 Free energy of the ion-electron system (eV)
  ---------------------------------------------------
  alpha Z        PSCENC =      4311.70706476
  Ewald energy   TEWEN  =    -41855.10752452
  -Hartree energ DENC   =     -7147.31153054
  -exchange      EXHF   =         0.00000000
  -V(xc)+E(xc)   XCENC  =      1758.09057647
  PAW double counting   =     28559.57951195   -28491.33313261
  entropy T*S    EENTRO =        -0.11842145
  eigenvalues    EBANDS =     -4685.63353399
  atomic energy  EATOM  =     46857.32045255
  Solvation  Ediel_sol  =         0.00000000
  ---------------------------------------------------
  free energy    TOTEN  =      -692.80653739 eV

  energy without entropy =     -692.68811593  energy(sigma->0) =     -692.74732666


--------------------------------------------------------------------------------------------------------




--------------------------------------- Iteration      1(   4)  ---------------------------------------


     EDDAV:  cpu time   50.7789: real time   51.3960
       DOS:  cpu time    0.0024: real time    0.0024
    --------------------------------------------
      LOOP:  cpu time   50.7813: real time   51.3985

 eigenvalue-minimisations  : 14592
 total energy-change (2. order) :-0.9212834E+02  (-0.8904602E+02)
 number of electron     512.0000000 magnetization 
 augmentation part      512.0000000 magnetization 

 Free energy of the ion-electron system (eV)
  ---------------------------------------------------
  alpha Z        PSCENC =      4311.70706476
  Ewald energy   TEWEN  =    -41855.10752452
  -Hartree energ DENC   =     -7147.31153054
  -exchange      EXHF   =         0.00000000
  -V(xc)+E(xc)   XCENC  =      1758.09057647
  PAW double counting   =     28559.57951195   -28491.33313261
  entropy T*S    EENTRO =        -0.12178806
  eigenvalues    EBANDS =     -4777.75850657
  atomic energy  EATOM  =     46857.32045255
  Solvation  Ediel_sol  =         0.00000000
  ---------------------------------------------------
  free energy    TOTEN  =      -784.93487658 eV

  energy without entropy =     -784.81308851  energy(sigma->0) =     -784.87398255


--------------------------------------------------------------------------------------------------------




--------------------------------------- Iteration      1(   5)  ---------------------------------------


     EDDAV:  cpu time   59.5513: real time   60.5802
       DOS:  cpu time    0.0012: real time    0.0012
    CHARGE:  cpu time    0.3784: real time    0.3821
    MIXING:  cpu time    0.0016: real time    0.0017
    --------------------------------------------
      LOOP:  cpu time   59.9325: real time   60.9652

 eigenvalue-minimisations  : 17472
 total energy-change (2. order) :-0.1291908E+02  (-0.1264978E+02)
 number of electron     511.9999942 magnetization 
 augmentation part      103.4753759 magnetization 

 Broyden mixing:
  rms(total) = 0.72754E+01    rms(broyden)= 0.72738E+01
  rms(prec ) = 0.11504E+02
  weight for this iteration     100.00

 Free energy of the ion-electron system (eV)
  ---------------------------------------------------
  alpha Z        PSCENC =      4311.70706476
  Ewald energy   TEWEN  =    -41855.10752452
  -Hartree energ DENC   =     -7147.31153054
  -exchange      EXHF   =         0.00000000
  -V(xc)+E(xc)   XCENC  =      1758.09057647
  PAW double counting   =     28559.57951195   -28491.33313261
  entropy T*S    EENTRO =        -0.12021770
  eigenvalues    EBANDS =     -4790.67916077
  atomic energy  EATOM  =     46857.32045255
  Solvation  Ediel_sol  =         0.00000000
  ---------------------------------------------------
  free energy    TOTEN  =      -797.85396041 eV

  energy without entropy =     -797.73374271  energy(sigma->0) =     -797.79385156


--------------------------------------------------------------------------------------------------------




--------------------------------------- Iteration      1(   6)  ---------------------------------------


    POTLOK:  cpu time    0.0279: real time    0.0319
    SETDIJ:  cpu time    0.0080: real time    0.0081
    EDDIAG:  cpu time    2.1529: real time    2.1789
  RMM-DIIS:  cpu time   34.6772: real time   35.1430
    ORTHCH:  cpu time    0.4804: real time    0.4847
       DOS:  cpu time    0.0012: real time    0.0012
    CHARGE:  cpu time    0.4023: real time    0.4064
    MIXING:  cpu time    0.0016: real time    0.0017
    --------------------------------------------
      LOOP:  cpu time   37.7515: real time   38.2559

 eigenvalue-minimisations  : 13217
 total energy-change (2. order) :-0.1795908E+03  (-0.2328348E+03)
 number of electron     511.9999885 magnetization 
 augmentation part      139.0522260 magnetization 

 Broyden mixing:
  rms(total) = 0.12568E+02    rms(broyden)= 0.12567E+02
  rms(prec ) = 0.20119E+02
  weight for this iteration     100.00

 eigenvalues of (default mixing * dielectric matrix)
  average eigenvalue GAMMA=   0.3403
  0.3403

 Free energy of the ion-electron system (eV)
  ---------------------------------------------------
  alpha Z        PSCENC =      4311.70706476
  Ewald energy   TEWEN  =    -41855.10752452
  -Hartree energ DENC   =     -6468.36840163
  -exchange      EXHF   =         0.00000000
  -V(xc)+E(xc)   XCENC  =      1744.81150861
  PAW double counting   =     27452.57168096   -27399.69664744
  entropy T*S    EENTRO =        -0.09553883
  eigenvalues    EBANDS =     -5620.58733484
  atomic energy  EATOM  =     46857.32045255
  Solvation  Ediel_sol  =         0.00000000
  ---------------------------------------------------
  free energy    TOTEN  =      -977.44474037 eV

  energy without entropy =     -977.34920154  energy(sigma->0) =     -977.39697096


--------------------------------------------------------------------------------------------------------




--------------------------------------- Iteration      1(   7)  ---------------------------------------


    POTLOK:  cpu time    0.0286: real time    0.0336
    SETDIJ:  cpu time    0.0080: real time    0.0080
    EDDIAG:  cpu time    2.1169: real time    2.1406
  RMM-DIIS:  cpu time   31.8870: real time   32.3454
    ORTHCH:  cpu time    0.5100: real time    0.5144
       DOS:  cpu time    0.0012: real time    0.0012
    CHARGE:  cpu time    0.3772: real time    0.3804
    MIXING:  cpu time    0.0014: real time    0.0017
    --------------------------------------------
      LOOP:  cpu time   34.9302: real time   35.4253

 eigenvalue-minimisations  : 12699
 total energy-change (2. order) : 0.3158710E+03  (-0.2614836E+02)
 number of electron     511.9999943 magnetization 
 augmentation part      107.5831073 magnetization 

 Broyden mixing:
  rms(total) = 0.40428E+01    rms(broyden)= 0.40415E+01
  rms(prec ) = 0.68700E+01
  weight for this iteration     100.00

 eigenvalues of (default mixing * dielectric matrix)
  average eigenvalue GAMMA=   0.5902
  0.9210  0.2593

 Free energy of the ion-electron system (eV)
  ---------------------------------------------------
  alpha Z        PSCENC =      4311.70706476
  Ewald energy   TEWEN  =    -41855.10752452
  -Hartree energ DENC   =     -6803.91601867
  -exchange      EXHF   =         0.00000000
  -V(xc)+E(xc)   XCENC  =      1758.11676805
  PAW double counting   =     28307.79432973   -28317.61047263
  entropy T*S    EENTRO =        -0.12841991
  eigenvalues    EBANDS =     -4919.74992494
  atomic energy  EATOM  =     46857.32045255
  Solvation  Ediel_sol  =         0.00000000
  ---------------------------------------------------
  free energy    TOTEN  =      -661.57374557 eV

  energy without entropy =     -661.44532566  energy(sigma->0) =     -661.50953562


--------------------------------------------------------------------------------------------------------




--------------------------------------- Iteration      1(   8)  ---------------------------------------


    POTLOK:  cpu time    0.0278: real time    0.0342
    SETDIJ:  cpu time    0.0080: real time    0.0081
    EDDIAG:  cpu time    2.1032: real time    2.1558
  RMM-DIIS:  cpu time   41.1057: real time   42.6210
    ORTHCH:  cpu time    0.4608: real time    0.4708
       DOS:  cpu time    0.0011: real time    0.0011
    CHARGE:  cpu time    0.4073: real time    0.4181
    MIXING:  cpu time    0.0272: real time    0.0275
    --------------------------------------------
      LOOP:  cpu time   44.1413: real time   45.7367

 eigenvalue-minimisations  : 15761
 total energy-change (2. order) :-0.1602589E+02  (-0.7932033E+01)
 number of electron     511.9999925 magnetization 
 augmentation part      121.2193071 magnetization 

 Broyden mixing:
  rms(total) = 0.41132E+01    rms(broyden)= 0.41090E+01
  rms(prec ) = 0.72900E+01
  weight for this iteration     100.00

 eigenvalues of (default mixing * dielectric matrix)
  average eigenvalue GAMMA=   0.4890
  0.7940  0.4637  0.2093

 Free energy of the ion-electron system (eV)
  ---------------------------------------------------
  alpha Z        PSCENC =      4311.70706476
  Ewald energy   TEWEN  =    -41855.10752452
  -Hartree energ DENC   =     -6679.86136832
  -exchange      EXHF   =         0.00000000
  -V(xc)+E(xc)   XCENC  =      1752.27531426
  PAW double counting   =     28549.71562760   -28567.75225336
  entropy T*S    EENTRO =        -0.13380789
  eigenvalues    EBANDS =     -5045.76313874
  atomic energy  EATOM  =     46857.32045255
  Solvation  Ediel_sol  =         0.00000000
  ---------------------------------------------------
  free energy    TOTEN  =      -677.59963367 eV

  energy without entropy =     -677.46582578  energy(sigma->0) =     -677.53272972


--------------------------------------------------------------------------------------------------------




--------------------------------------- Iteration      1(   9)  ---------------------------------------


    POTLOK:  cpu time    0.0290: real time    0.0330
    SETDIJ:  cpu time    0.0082: real time    0.0084
    EDDIAG:  cpu time    2.1464: real time    2.2083
  RMM-DIIS:  cpu time   35.2340: real time   36.5056
    ORTHCH:  cpu time    0.5088: real time    0.5192
       DOS:  cpu time    0.0011: real time    0.0012
    CHARGE:  cpu time    0.3922: real time    0.4032
    MIXING:  cpu time    0.0014: real time    0.0015
    --------------------------------------------
      LOOP:  cpu time   38.3212: real time   39.6803

 eigenvalue-minimisations  : 13544
 total energy-change (2. order) : 0.9691077E+01  (-0.1352972E+01)
 number of electron     511.9999935 magnetization 
 augmentation part      116.6344639 magnetization 

 Broyden mixing:
  rms(total) = 0.27456E+01    rms(broyden)= 0.27449E+01
  rms(prec ) = 0.45062E+01
  weight for this iteration     100.00

 eigenvalues of (default mixing * dielectric matrix)
  average eigenvalue GAMMA=   0.4260
  0.6836  0.6836  0.2222  0.1149

 Free energy of the ion-electron system (eV)
  ---------------------------------------------------
  alpha Z        PSCENC =      4311.70706476
  Ewald energy   TEWEN  =    -41855.10752452
  -Hartree energ DENC   =     -6688.38718381
  -exchange      EXHF   =         0.00000000
  -V(xc)+E(xc)   XCENC  =      1751.37444524
  PAW double counting   =     28725.47891527   -28739.88869519
  entropy T*S    EENTRO =        -0.19629722
  eigenvalues    EBANDS =     -5030.20973360
  atomic energy  EATOM  =     46857.32045255
  Solvation  Ediel_sol  =         0.00000000
  ---------------------------------------------------
  free energy    TOTEN  =      -667.90855653 eV

  energy without entropy =     -667.71225931  energy(sigma->0) =     -667.81040792


--------------------------------------------------------------------------------------------------------




--------------------------------------- Iteration      1(  10)  ---------------------------------------


    POTLOK:  cpu time    0.0279: real time    0.0319
    SETDIJ:  cpu time    0.0080: real time    0.0081
    EDDIAG:  cpu time    2.0968: real time    2.1440
  RMM-DIIS:  cpu time   42.3475: real time   43.0749
    ORTHCH:  cpu time    0.5030: real time    0.5078
       DOS:  cpu time    0.0012: real time    0.0012
    CHARGE:  cpu time    0.3851: real time    0.3897
    MIXING:  cpu time    0.0015: real time    0.0015
    --------------------------------------------
      LOOP:  cpu time   45.3710: real time   46.1590

 eigenvalue-minimisations  : 16273
 total energy-change (2. order) : 0.2775038E+01  (-0.1182567E+01)
 number of electron     511.9999934 magnetization 
 augmentation part      114.8581824 magnetization 

 Broyden mixing:
  rms(total) = 0.14207E+01    rms(broyden)= 0.14187E+01
  rms(prec ) = 0.23068E+01
  weight for this iteration     100.00

 eigenvalues of (default mixing * dielectric matrix)
  average eigenvalue GAMMA=   0.5683
  0.9819  0.9819  0.5746  0.2204  0.0825

 Free energy of the ion-electron system (eV)
  ---------------------------------------------------
  alpha Z        PSCENC =      4311.70706476
  Ewald energy   TEWEN  =    -41855.10752452
  -Hartree energ DENC   =     -6691.94799161
  -exchange      EXHF   =         0.00000000
  -V(xc)+E(xc)   XCENC  =      1750.96493965
  PAW double counting   =     28814.70831764   -28827.10413295
  entropy T*S    EENTRO =        -0.21350195
  eigenvalues    EBANDS =     -5025.46114231
  atomic energy  EATOM  =     46857.32045255
  Solvation  Ediel_sol  =         0.00000000
  ---------------------------------------------------
  free energy    TOTEN  =      -665.13351874 eV

  energy without entropy =     -664.92001679  energy(sigma->0) =     -665.02676777


--------------------------------------------------------------------------------------------------------




--------------------------------------- Iteration      1(  11)  ---------------------------------------


    POTLOK:  cpu time    0.0289: real time    0.0316
    SETDIJ:  cpu time    0.0081: real time    0.0081
    EDDIAG:  cpu time    2.1894: real time    2.1953
  RMM-DIIS:  cpu time   33.2420: real time   33.3906
    ORTHCH:  cpu time    0.4679: real time    0.4686
       DOS:  cpu time    0.0012: real time    0.0012
    CHARGE:  cpu time    0.3854: real time    0.3862
    MIXING:  cpu time    0.0018: real time    0.0018
    --------------------------------------------
      LOOP:  cpu time   36.3245: real time   36.4833

 eigenvalue-minimisations  : 12394
 total energy-change (2. order) :-0.1615880E+01  (-0.4597640E+00)
 number of electron     511.9999935 magnetization 
 augmentation part      114.9970776 magnetization 

 Broyden mixing:
  rms(total) = 0.27001E+01    rms(broyden)= 0.26988E+01
  rms(prec ) = 0.45849E+01
  weight for this iteration     100.00

 eigenvalues of (default mixing * dielectric matrix)
  average eigenvalue GAMMA=   0.5539
  1.1603  1.1603  0.5953  0.2209  0.1059  0.0804

 Free energy of the ion-electron system (eV)
  ---------------------------------------------------
  alpha Z        PSCENC =      4311.70706476
  Ewald energy   TEWEN  =    -41855.10752452
  -Hartree energ DENC   =     -6684.95001739
  -exchange      EXHF   =         0.00000000
  -V(xc)+E(xc)   XCENC  =      1749.22708498
  PAW double counting   =     29084.54812188   -29089.32990348
  entropy T*S    EENTRO =        -0.17892876
  eigenvalues    EBANDS =     -5039.98574853
  atomic energy  EATOM  =     46857.32045255
  Solvation  Ediel_sol  =         0.00000000
  ---------------------------------------------------
  free energy    TOTEN  =      -666.74939850 eV

  energy without entropy =     -666.57046974  energy(sigma->0) =     -666.65993412


--------------------------------------------------------------------------------------------------------




--------------------------------------- Iteration      1(  12)  ---------------------------------------


    POTLOK:  cpu time    0.0682: real time    0.0723
    SETDIJ:  cpu time    0.0081: real time    0.0082
    EDDIAG:  cpu time    2.0978: real time    2.1469
  RMM-DIIS:  cpu time   36.3926: real time   37.5968
    ORTHCH:  cpu time    0.5069: real time    0.5254
       DOS:  cpu time    0.0011: real time    0.0011
    CHARGE:  cpu time    0.3864: real time    0.3905
    MIXING:  cpu time    0.0016: real time    0.0017
    --------------------------------------------
      LOOP:  cpu time   39.4627: real time   40.7429

 eigenvalue-minimisations  : 14169
 total energy-change (2. order) : 0.2916031E+01  (-0.4199300E+00)
 number of electron     511.9999940 magnetization 
 augmentation part      114.7505631 magnetization 

 Broyden mixing:
  rms(total) = 0.10603E+01    rms(broyden)= 0.10570E+01
  rms(prec ) = 0.17741E+01
  weight for this iteration     100.00

 eigenvalues of (default mixing * dielectric matrix)
  average eigenvalue GAMMA=   0.5942
  1.2570  1.2570  0.8093  0.4503  0.2196  0.0832  0.0832

 Free energy of the ion-electron system (eV)
  ---------------------------------------------------
  alpha Z        PSCENC =      4311.70706476
  Ewald energy   TEWEN  =    -41855.10752452
  -Hartree energ DENC   =     -6680.54736257
  -exchange      EXHF   =         0.00000000
  -V(xc)+E(xc)   XCENC  =      1748.23807679
  PAW double counting   =     29248.92560120   -29249.39281116
  entropy T*S    EENTRO =        -0.21290129
  eigenvalues    EBANDS =     -5044.76396337
  atomic energy  EATOM  =     46857.32045255
  Solvation  Ediel_sol  =         0.00000000
  ---------------------------------------------------
  free energy    TOTEN  =      -663.83336761 eV

  energy without entropy =     -663.62046632  energy(sigma->0) =     -663.72691696


--------------------------------------------------------------------------------------------------------




--------------------------------------- Iteration      1(  13)  ---------------------------------------


    POTLOK:  cpu time    0.0280: real time    0.0317
    SETDIJ:  cpu time    0.0080: real time    0.0080
    EDDIAG:  cpu time    2.1232: real time    2.1470
  RMM-DIIS:  cpu time   38.7178: real time   39.2216
    ORTHCH:  cpu time    0.5449: real time    0.5568
       DOS:  cpu time    0.0012: real time    0.0012
    CHARGE:  cpu time    0.3891: real time    0.3926
    MIXING:  cpu time    0.0018: real time    0.0018
    --------------------------------------------
      LOOP:  cpu time   41.8140: real time   42.3607

 eigenvalue-minimisations  : 14870
 total energy-change (2. order) :-0.1170122E+01  (-0.2625046E+00)
 number of electron     511.9999933 magnetization 
 augmentation part      113.9686904 magnetization 

 Broyden mixing:
  rms(total) = 0.19466E+01    rms(broyden)= 0.19450E+01
  rms(prec ) = 0.33216E+01
  weight for this iteration     100.00

 eigenvalues of (default mixing * dielectric matrix)
  average eigenvalue GAMMA=   0.6127
  1.8819  1.0096  1.0096  0.5246  0.2200  0.0973  0.0824  0.0759

 Free energy of the ion-electron system (eV)
  ---------------------------------------------------
  alpha Z        PSCENC =      4311.70706476
[...]
  0.018  -0.026   0.012   0.000  -0.010   0.014  -0.000  -0.014   0.728   0.014   0.017  -0.002   0.003  -0.207   0.002  -0.001
 -0.018   0.026   0.015  -0.013  -0.000   0.021  -0.019  -0.000   0.014   0.751   0.011   0.000  -0.014   0.002  -0.204   0.001
  0.033  -0.048   0.036   0.035   0.011   0.048   0.044   0.016   0.017   0.011   0.611   0.009   0.019  -0.000   0.001  -0.404
 -0.006   0.008   0.001   0.001   0.011   0.001   0.001   0.014  -0.002   0.000   0.009   0.741  -0.002   0.001  -0.001  -0.006
  0.033  -0.048   0.056   0.005  -0.028   0.074   0.006  -0.038   0.003  -0.014   0.019  -0.002   0.640   0.001  -0.005  -0.010
  0.003  -0.001   0.005   0.001  -0.005   0.005   0.001  -0.000  -0.207   0.002  -0.000   0.001   0.001   0.142  -0.000  -0.001
 -0.010   0.012  -0.010   0.001   0.001  -0.015   0.007   0.001   0.002  -0.204   0.001  -0.001  -0.005  -0.000   0.149  -0.003
 -0.015   0.023  -0.016  -0.026  -0.019  -0.021  -0.031  -0.022  -0.001   0.001  -0.404  -0.006  -0.010  -0.001  -0.003   0.357
 -0.005   0.005   0.001   0.004  -0.009   0.001   0.005  -0.013   0.001  -0.001  -0.006  -0.179   0.006  -0.001   0.001   0.010
 -0.014   0.026  -0.033   0.001   0.034  -0.043   0.001   0.042   0.001  -0.005  -0.010   0.005  -0.422  -0.002   0.004   0.000


------------------------ aborting loop because EDIFF is reached ----------------------------------------


    CHARGE:  cpu time    0.3897: real time    0.3903
    FORLOC:  cpu time    0.0163: real time    0.0165
    FORNL :  cpu time   32.7449: real time   32.9347
    STRESS:  cpu time   42.5367: real time   42.9708
    FORCOR:  cpu time    0.0338: real time    0.0339
    FORHAR:  cpu time    0.0215: real time    0.0216
    MIXING:  cpu time    0.0044: real time    0.0044
    OFIELD:  cpu time    0.0000: real time    0.0000

  FORCE on cell =-STRESS in cart. coord.  units (eV):
  Direction    XX          YY          ZZ          XY          YZ          ZX
  --------------------------------------------------------------------------------------
  Alpha Z  4311.70706  4311.70706  4311.70706
  Ewald  -13813.86640-14268.06464-13773.40375    10.54379    -2.83253    43.39129
  Hartree  2296.12219  2029.79869  2349.80120   -18.57423    -0.21267    27.90810
  E(xc)   -2244.14691 -2244.70763 -2244.16695     0.03826    -0.03090     0.04150
  Local    1956.18326  2669.38227  1864.36043    10.66576     0.53261   -73.62967
  n-local -1067.85013 -1076.21487 -1068.32258     2.22768    -1.83967     0.15137
  augment  1041.57431  1042.24365  1040.38540    -0.06560     0.90789     0.28353
  Kinetic  7474.17059  7482.70079  7476.19498    -4.02061     4.19540     1.24490
  Fock        0.00000     0.00000     0.00000     0.00000     0.00000     0.00000
  -------------------------------------------------------------------------------------
  Total     -46.10602   -53.15468   -43.44421     0.81505     0.72014    -0.60899
  in kB    -102.18334  -117.80505   -96.28405     1.80636     1.59602    -1.34968
  external pressure =     -105.42 kB  Pullay stress =        0.00 kB


 VOLUME and BASIS-vectors are now :
 -----------------------------------------------------------------------------
  energy-cutoff  :      400.00
  volume of cell :      722.92
      direct lattice vectors                 reciprocal lattice vectors
     8.932499886  0.000000000  0.000000000     0.111950743 -0.000071122 -0.000402248
     0.005752996  9.055598339  0.000000000     0.000000000  0.110428926  0.000194529
     0.032101802 -0.015743463  8.937128072     0.000000000  0.000000000  0.111892768

  length of vectors
     8.932499886  9.055600166  8.937199593     0.111951488  0.110429097  0.111892768


 FORCES acting on ions
    electron-ion (+dipol)            ewald-force                    non-local-force                 convergence-correction
 -----------------------------------------------------------------------------------------------
   -.345E+02 -.524E+02 -.830E+01   0.342E+02 0.520E+02 0.791E+01   0.441E+00 0.476E-01 0.646E-01   0.373E-03 -.468E-03 -.149E-02
   -.294E+02 -.504E+02 0.749E+02   0.301E+02 0.492E+02 -.753E+02   -.678E+00 0.334E+00 0.906E-01   0.119E-02 -.118E-02 0.514E-03
   0.236E+02 0.422E+02 0.415E+02   -.233E+02 -.411E+02 -.420E+02   0.281E+00 -.227E+00 0.802E-01   0.135E-02 0.127E-02 -.385E-03
   0.651E+02 0.634E+02 -.535E+01   -.653E+02 -.641E+02 0.531E+01   -.150E+00 0.198E+00 -.786E-01   -.124E-02 0.500E-03 0.109E-02
   0.419E+02 -.959E+02 -.277E+02   -.423E+02 0.944E+02 0.282E+02   -.235E+00 0.742E+00 0.336E+00   -.169E-02 -.291E-02 0.141E-02
   -.142E+03 0.633E+02 -.115E+02   0.142E+03 -.637E+02 0.120E+02   -.196E+00 -.803E-01 0.118E+00   0.171E-02 -.447E-03 0.518E-03
   0.132E+03 0.471E+02 -.834E+02   -.133E+03 -.455E+02 0.836E+02   0.128E+00 -.480E+00 0.301E-01   -.114E-02 0.291E-02 0.947E-03
   -.932E+01 -.308E+02 0.657E+02   0.949E+01 0.314E+02 -.656E+02   0.458E+00 -.605E+00 -.692E+00   0.763E-03 -.529E-03 0.107E-02
   -.132E+02 0.276E+01 -.801E+01   0.130E+02 -.313E+01 0.817E+01   -.453E+00 0.115E+01 -.562E+00   -.125E-02 0.955E-03 0.284E-03
   -.212E+02 -.387E+02 -.511E+02   0.223E+02 0.395E+02 0.503E+02   -.726E+00 -.108E+01 0.110E+01   0.158E-02 -.142E-02 -.890E-03
   -.708E+01 0.507E+02 0.236E+02   0.693E+01 -.522E+02 -.223E+02   -.295E+00 0.716E+00 -.685E+00   0.705E-03 -.155E-02 0.252E-03
   -.941E+02 0.127E+02 -.422E+02   0.962E+02 -.133E+02 0.428E+02   -.133E+01 0.113E+01 0.495E-01   0.141E-02 0.142E-02 -.245E-03
   0.425E+02 -.218E+01 -.295E+02   -.427E+02 0.244E+01 0.305E+02   -.175E+00 0.242E+00 -.149E+00   -.277E-03 0.276E-04 0.248E-03
   -.643E+01 -.516E+02 -.170E+02   0.738E+01 0.523E+02 0.160E+02   -.579E+00 -.104E+01 0.111E+01   0.113E-02 -.456E-03 -.103E-02
   0.226E+02 0.879E+01 0.461E+02   -.228E+02 -.966E+01 -.472E+02   -.367E+00 -.327E+00 0.710E+00   -.631E-03 -.756E-03 -.919E-03
   0.618E+01 -.815E+02 0.392E+02   -.845E+01 0.810E+02 -.387E+02   0.731E+00 0.102E+01 -.962E+00   -.121E-02 -.614E-03 -.340E-03
   -.931E+01 -.286E+02 -.473E+02   0.814E+01 0.297E+02 0.463E+02   0.756E+00 -.164E+01 0.425E+00   -.108E-02 -.946E-03 -.288E-03
   0.683E+01 0.393E+02 0.181E+02   -.668E+01 -.397E+02 -.183E+02   0.694E+00 0.894E+00 0.174E+00   0.112E-02 0.337E-03 -.980E-04
   -.302E+01 -.744E+02 0.114E+02   0.327E+01 0.748E+02 -.100E+02   0.407E+00 -.446E+00 -.139E+01   -.788E-03 -.101E-02 0.104E-02
   0.277E+02 0.637E+02 -.284E+02   -.269E+02 -.639E+02 0.286E+02   0.409E-01 0.203E+00 -.309E+00   0.379E-03 0.109E-02 0.151E-03
   -.138E+02 -.185E+02 0.176E+02   0.150E+02 0.188E+02 -.180E+02   -.113E+01 -.142E+00 0.526E+00   0.179E-03 -.504E-03 0.638E-04
   -.932E+00 -.187E+01 -.104E+02   0.313E+01 0.905E+00 0.940E+01   -.262E+01 0.107E+01 0.113E+01   0.176E-02 -.876E-04 -.114E-02
   -.454E+01 -.193E+02 -.874E+01   0.517E+01 0.213E+02 0.953E+01   -.737E+00 -.240E+01 -.659E+00   0.452E-03 0.814E-03 -.288E-03
   0.116E+02 0.139E+02 0.408E+02   -.129E+02 -.142E+02 -.433E+02   0.133E+01 0.309E+00 0.242E+01   -.177E-03 -.196E-03 -.241E-03
   -.204E+02 -.357E+02 -.607E+02   0.193E+02 0.364E+02 0.625E+02   0.114E+01 -.896E+00 -.268E+01   -.209E-02 -.221E-03 -.142E-02
   -.163E+02 -.424E+02 0.393E+02   0.169E+02 0.414E+02 -.414E+02   -.142E+01 0.110E+01 0.241E+01   -.362E-03 -.101E-02 -.101E-02
   -.123E+02 0.428E+01 0.366E+02   0.122E+02 -.340E+01 -.404E+02   0.476E+00 -.886E+00 0.432E+01   0.705E-04 -.580E-04 -.745E-03
   0.372E+02 0.304E+01 -.861E+01   -.386E+02 -.766E+00 0.105E+02   0.145E+01 -.264E+01 -.234E+01   -.281E-03 0.124E-02 0.129E-02
   0.761E+01 -.146E+02 -.155E+02   -.993E+01 0.151E+02 0.166E+02   0.216E+01 -.425E+00 -.375E+00   -.990E-04 -.271E-04 -.119E-02
   -.243E+02 -.166E+02 -.251E+02   0.237E+02 0.152E+02 0.267E+02   0.261E+00 0.136E+01 -.160E+01   0.403E-03 -.191E-02 0.234E-03
   -.310E+02 -.309E+02 0.891E+01   0.300E+02 0.313E+02 -.605E+01   0.131E+01 -.411E+00 -.294E+01   0.293E-03 -.963E-04 0.158E-02
   0.157E+02 -.332E+02 0.315E+02   -.167E+02 0.325E+02 -.314E+02   0.865E+00 0.836E+00 0.364E+00   -.602E-03 -.211E-03 -.302E-03
   0.320E+02 -.203E+02 -.376E+01   -.326E+02 0.208E+02 0.239E+01   0.111E+01 -.525E+00 0.194E+01   0.346E-03 -.168E-03 0.121E-02
   0.206E+02 -.480E+02 0.318E+02   -.211E+02 0.498E+02 -.335E+02   0.964E+00 -.101E+01 0.433E+00   0.395E-03 -.557E-04 0.104E-02
   0.115E+02 -.223E+02 -.370E+02   -.119E+02 0.223E+02 0.376E+02   0.383E+00 0.221E+00 -.125E+01   -.303E-03 -.922E-03 0.131E-03
   0.750E+01 0.178E+02 0.210E+02   -.619E+01 -.180E+02 -.211E+02   -.115E+01 0.165E+00 0.249E+00   0.941E-03 0.409E-03 0.817E-04
   -.392E+01 0.985E+01 0.861E+01   0.379E+01 -.976E+01 -.832E+01   0.505E+00 -.263E+00 0.779E-01   0.476E-04 0.131E-03 -.397E-03
   -.330E+02 0.512E+01 0.110E+01   0.339E+02 -.594E+01 -.114E+01   -.964E+00 0.850E+00 0.390E-01   0.292E-03 -.574E-03 -.987E-04
   -.129E+02 -.441E+02 0.510E+02   0.118E+02 0.456E+02 -.528E+02   0.406E+00 -.782E+00 0.727E+00   -.965E-03 0.280E-03 -.507E-03
   -.363E+01 0.449E+02 -.432E+01   0.468E+01 -.464E+02 0.460E+01   -.115E+01 0.142E+01 -.283E+00   0.127E-03 0.134E-03 0.356E-03
   0.491E+02 0.648E+02 0.356E+02   -.514E+02 -.650E+02 -.372E+02   0.740E+00 0.747E+00 0.668E+00   -.280E-03 0.945E-03 -.310E-04
   0.947E+01 -.296E+02 -.118E+02   -.886E+01 0.290E+02 0.119E+02   -.300E+00 0.269E-02 -.120E+00   -.291E-03 -.696E-03 -.727E-04
   -.164E+02 -.145E+02 0.101E+01   0.192E+02 0.142E+02 -.153E+00   -.103E+01 0.313E+00 -.369E+00   -.463E-03 -.133E-03 0.697E-03
   -.130E+02 -.125E+02 -.115E+01   0.138E+02 0.134E+02 0.152E+01   -.688E+00 -.182E+00 -.413E+00   0.600E-03 -.851E-03 0.297E-03
   0.134E+02 0.230E+02 -.166E+02   -.130E+02 -.224E+02 0.168E+02   0.171E+00 -.586E+00 -.101E+00   -.140E-03 0.645E-03 -.121E-03
   0.150E+02 0.219E+02 -.101E+02   -.161E+02 -.220E+02 0.982E+01   0.400E+00 0.161E-01 -.250E+00   0.362E-03 0.144E-03 0.430E-03
   -.354E+02 0.988E+01 -.255E+02   0.365E+02 -.106E+02 0.268E+02   -.420E+00 -.183E+00 -.628E+00   0.824E-03 0.953E-03 0.240E-03
   -.318E+02 0.226E+02 -.433E+01   0.324E+02 -.229E+02 0.483E+01   -.376E+00 0.322E+00 -.464E+00   0.902E-03 -.307E-04 0.361E-03
   -.267E+02 -.166E+02 -.252E+02   0.263E+02 0.196E+02 0.259E+02   -.839E-01 -.127E+01 -.276E+00   0.150E-03 0.197E-02 0.479E-03
   -.187E+02 0.748E+02 -.102E+02   0.201E+02 -.772E+02 0.109E+02   -.190E+00 0.129E+01 -.192E+00   -.462E-03 -.121E-03 -.384E-03
   0.367E+02 -.296E+02 -.786E+01   -.381E+02 0.327E+02 0.764E+01   0.984E+00 -.168E+01 -.453E-01   -.780E-03 0.248E-04 -.108E-02
   0.449E+02 0.354E+02 -.281E+02   -.460E+02 -.363E+02 0.294E+02   0.480E+00 0.550E+00 -.434E+00   -.103E-02 0.109E-03 -.570E-04
   0.680E+02 -.340E+02 -.124E+03   -.671E+02 0.362E+02 0.123E+03   -.592E+00 -.163E+01 -.157E+00   -.278E-03 -.163E-02 -.144E-02
   -.515E+02 0.668E+02 -.280E+02   0.518E+02 -.641E+02 0.269E+02   -.136E+00 -.163E+01 0.265E+00   0.117E-03 0.217E-03 0.947E-03
   0.799E+02 -.673E+02 0.109E+03   -.819E+02 0.671E+02 -.109E+03   0.206E+01 -.388E+00 0.401E+00   0.356E-03 0.390E-03 -.569E-03
   0.119E+02 0.805E+01 -.566E+02   -.114E+02 -.755E+01 0.566E+02   -.690E+00 -.462E+00 0.431E+00   0.790E-03 0.240E-03 0.962E-03
   -.188E+02 -.746E+02 0.605E+02   0.173E+02 0.731E+02 -.595E+02   0.839E+00 0.121E+01 -.795E+00   -.637E-03 -.115E-03 0.901E-04
   -.862E+02 -.822E+02 0.257E+02   0.849E+02 0.793E+02 -.267E+02   0.561E+00 0.205E+01 0.159E+01   -.145E-02 0.170E-02 -.197E-04
   -.578E+02 0.105E+03 0.857E+02   0.597E+02 -.105E+03 -.873E+02   -.104E+01 -.491E+00 0.456E+00   0.124E-02 0.795E-03 0.458E-03
   -.757E+02 0.162E+03 0.153E+03   0.763E+02 -.161E+03 -.156E+03   -.101E+00 -.102E+01 0.140E+01   -.140E-02 0.109E-02 -.101E-02
   0.879E+02 -.566E+02 -.225E+02   -.879E+02 0.569E+02 0.238E+02   -.618E+00 0.321E+00 -.638E+00   0.140E-02 0.148E-03 0.124E-02
   0.156E+03 0.183E+03 -.184E+02   -.160E+03 -.183E+03 0.182E+02   0.223E+01 -.896E+00 -.511E-01   -.178E-02 0.115E-02 -.125E-02
   -.588E+02 0.153E+03 -.127E+03   0.591E+02 -.154E+03 0.129E+03   0.148E+00 -.826E+00 -.846E+00   0.851E-04 0.530E-03 0.683E-03
   -.523E+02 -.144E+03 -.301E+02   0.525E+02 0.146E+03 0.309E+02   -.205E+00 -.968E+00 -.546E-01   -.542E-03 0.165E-02 -.639E-03
 -----------------------------------------------------------------------------------------------
   -.408E+01 0.768E+01 -.137E+01   0.881E-12 0.568E-13 0.284E-12   0.408E+01 -.769E+01 0.137E+01   0.123E-03 0.231E-02 0.682E-03
 
 
 POSITION                                       TOTAL-FORCE (eV/Angst)
 -----------------------------------------------------------------------------------
      8.94242      8.96787      8.93034         0.151004     -0.303227     -0.327424
      2.28241      9.02587      2.22642         0.003926     -0.882404     -0.246673
      2.22643      4.53881      2.23026         0.607912      0.889951     -0.474079
      4.54591      4.48908      8.92229        -0.394936     -0.507155     -0.108153
      4.53444      2.21872      6.67693        -0.645468     -0.762914      0.762898
      8.90029      4.56071      4.44881         0.383295     -0.567108      0.650795
      4.49014      6.82357      6.68649        -0.227341      1.135847      0.193417
      8.89204      2.13451      2.35761         0.623388     -0.011482     -0.556944
      6.76813      6.71030      0.09831        -0.629613      0.780839     -0.400390
      0.04315      2.30126      6.60400         0.431834     -0.356126      0.294618
      6.74452      2.36126      4.51620        -0.445856     -0.745438      0.594597
      8.91729      6.73397      6.65923         0.777787      0.520603      0.615582
      2.32064      4.46734      6.66218        -0.316489      0.507137      0.798604
      2.24770      2.23363      8.90656         0.366831     -0.304124      0.057491
      4.55028      2.32121      2.26789        -0.589649     -1.194926     -0.349029
      6.70291      8.94160      2.41008        -1.536121      0.471647     -0.524589
      6.79704      2.30283      8.90066        -0.411606     -0.525510     -0.539286
      2.24827      6.77360      8.93480         0.845882      0.464724      0.003685
      2.27491      2.24000      4.46990         0.655630     -0.009681     -0.013875
      2.20507      6.78827      4.46713         0.797683     -0.000843     -0.059983
      2.24092      2.25483      2.21864         0.080993      0.099545      0.101501
      2.37321      9.03852      8.87421        -0.414025      0.103178      0.179044
      0.02658      2.26605      0.01162        -0.109227     -0.355974      0.124521
      6.73702      2.22520      2.27825         0.020551      0.023892     -0.092073
      6.68469      9.03259      0.10742         0.061801     -0.193854     -0.829848
      4.54379      9.04963      2.20506        -0.834091      0.040637      0.320041
      8.85832      4.35086      2.15394         0.366001     -0.005975      0.467108
      4.51726      6.89398      0.07641         0.081131     -0.361834     -0.454870
      8.85765      0.00669      6.58747        -0.160077      0.069613      0.738562
      6.79137      2.20122      6.69364        -0.339297     -0.025066      0.049473
      6.59359      0.02972      4.56357         0.303469      0.002836     -0.078634
      4.53387      2.09898      4.42790        -0.094180      0.081392      0.400742
      4.49064     -0.00604      6.56629         0.578461     -0.016351      0.563764
      8.92154      9.03087      2.31472         0.468442      0.811465     -1.223933
      4.50598      2.23425      0.02342        -0.027501      0.209864     -0.639357
      2.25740      6.78397      2.22633         0.162021     -0.096986      0.075101
      2.20792      4.51874      8.89342         0.367685     -0.177770      0.363992
      8.92236      6.72950      0.04111        -0.060770      0.028845     -0.004130
      6.76844      6.68722      2.30283        -0.713051      0.796160     -1.066761
      6.77731      4.55637      0.02574        -0.100435     -0.016560     -0.003632
      4.53998      4.55388      2.31284        -1.532286      0.528914     -0.962627
      2.24977      2.28064      6.68980         0.310455     -0.602679      0.022145
      2.20553      9.03174      4.49430         1.727543     -0.029340      0.484360
      8.93248      2.18628      4.48000         0.058851      0.722722     -0.041716
      2.18803      6.81077      6.70445         0.565627      0.014642      0.028766
      2.32722      4.52552      4.48009        -0.614260     -0.091533     -0.496315
      8.86353      6.89389      4.44586         0.684887     -0.856734      0.749274
      8.88840      4.52104      6.71518         0.223716      0.006090      0.040936
      6.73090      6.76979      6.68104        -0.499978      1.655240      0.384660
      6.63223      4.53776      4.47455         1.233526     -1.115449      0.506678
      4.53789      6.78007      4.44354        -0.447527      1.444089     -0.263054
      4.53762      4.53590      6.60561        -0.628210     -0.388374      0.932820
      4.63975      0.10753      8.76509         0.300122      0.568424     -0.764478
      8.95298      4.60075      8.81317         0.191781      0.998972     -0.785599
      4.51267      6.69045      2.31516         0.132120     -0.560030     -0.108808
      2.14816      0.08624      6.66781        -0.189706      0.038337      0.381584
      4.30546      8.89455      4.44336        -0.612778     -0.252900      0.222649
      6.66514      8.85068      6.83252        -0.732135     -0.829912      0.529655
      8.93328      7.02068      2.33277         0.808697     -0.268939     -1.178785
      6.58146      4.65654      2.38317         0.415013     -0.559337     -1.605282
      0.23263      9.02815      4.42897        -0.601235      0.648122      0.674738
      4.53346      4.77649      4.46124        -1.258818     -0.626106     -0.226027
      6.62571      4.77227      6.59694         0.396416     -1.377146      1.354841
      6.75507      6.59724      4.38965        -0.017813      1.316060      0.757710
 -----------------------------------------------------------------------------------
    total drift:                                0.002260     -0.003114     -0.002692


--------------------------------------------------------------------------------------------------------



  FREE ENERGIE OF THE ION-ELECTRON SYSTEM (eV)
  ---------------------------------------------------
  free  energy   TOTEN  =      -663.38525053 eV

  energy  without entropy=     -663.16937977  energy(sigma->0) =     -663.27731515
 


--------------------------------------------------------------------------------------------------------


    POTLOK:  cpu time    0.0375: real time    0.0379


--------------------------------------------------------------------------------------------------------


 writing wavefunctions
     LOOP+:  cpu time 1332.8361: real time 1357.7983
    4ORBIT:  cpu time    0.0000: real time    0.0000

 total amount of memory used by VASP MPI-rank0   280593. kBytes
=======================================================================

   base      :      30000. kBytes
   nonl-proj :     199068. kBytes
   fftplans  :       1726. kBytes
   grid      :       8060. kBytes
   one-center:        995. kBytes
   wavefun   :      40744. kBytes
 
  
  
 General timing and accounting informations for this job:
 ========================================================
  
                  Total CPU time used (sec):     1343.835
                            User time (sec):     1314.866
                          System time (sec):       28.969
                         Elapsed time (sec):     1369.013
  
                   Maximum memory used (kb):      321852.
                   Average memory used (kb):           0.
  
                          Minor page faults:      1238463
                          Major page faults:            0
                 Voluntary context switches:         2379
