<?xml version="1.0" encoding="ISO-8859-1"?>
<modeling>
 <generator>
  <i name="program" type="string">vasp </i>
  <i name="version" type="string">5.4.4.18Apr17-6-g9f103f2a35  </i>
  <i name="subversion" type="string">(build Oct 18 2021 20:38:43) complex            parallel </i>
  <i name="platform" type="string">LinuxIFC </i>
  <i name="date" type="string">2025 11 12 </i>
  <i name="time" type="string">17:08:10 </i>
 </generator>
 <incar>
  <i type="string" name="SYSTEM">HEBCN</i>
  <i type="int" name="ISTART">     0</i>
  <i type="string" name="PREC">normal</i>
  <i type="string" name="ALGO">Fast</i>
  <i type="int" name="ICHARG">     2</i>
  <i type="int" name="NELM">    60</i>
  <i type="int" name="IBRION">    -1</i>
  <i name="EDIFF">      0.00001000</i>
  <i name="EDIFFG">     -0.01000000</i>
  <i type="int" name="NSW">     0</i>
  <i type="int" name="ISIF">     2</i>
  <i name="ENCUT">    400.00000000</i>
  <i name="POTIM">      0.50000000</i>
  <i type="logical" name="LREAL"> F  </i>
  <i type="int" name="ISMEAR">     0</i>
  <i name="SIGMA">      0.10000000</i>
  <i type="logical" name="LWAVE"> T  </i>
  <i type="logical" name="LCHARG"> T  </i>
  <v type="int" name="KPOINT_BSE">    -1     0     0     0</v>
  <i type="int" name="NELM">    60</i>
 </incar>
 <structure name="primitive_cell" >
  <crystal>
   <varray name="basis" >
    <v>       8.93249989       0.00000000       0.00000000 </v>
    <v>       0.00575300       9.05559834       0.00000000 </v>
    <v>       0.03210180      -0.01574346       8.93712807 </v>
   </varray>
   <i name="volume">    722.91652451 </i>
   <varray name="rec_basis" >
    <v>       0.11195074      -0.00007112      -0.00040225 </v>
    <v>       0.00000000       0.11042893       0.00019453 </v>
    <v>       0.00000000       0.00000000       0.11189277 </v>
   </varray>
  </crystal>
  <varray name="positions" >
   <v>      -0.00311999      -0.00795003      -0.00075998 </v>
   <v>      -0.25232999      -0.00252000       0.01202000 </v>
   <v>      -0.00162995      -0.25686004       0.00460000 </v>
   <v>      -0.00280000      -0.00228008       0.25899999 </v>
   <v>       0.00281000       0.25024000       0.00130000 </v>
   <v>      -0.01103011       0.00202000      -0.26291001 </v>
   <v>       0.26146999      -0.00015998      -0.00704004 </v>
   <v>      -0.00135002      -0.22426001       0.26102000 </v>
   <v>      -0.25720997      -0.02130006      -0.23549005 </v>
   <v>       0.23780002       0.01082000      -0.25392002 </v>
   <v>      -0.24282000      -0.25897003       0.01100000 </v>
   <v>       0.24762001      -0.25026001      -0.00025994 </v>
   <v>      -0.00485996      -0.25507996      -0.25488003 </v>
   <v>      -0.24281000       0.25603001      -0.00408003 </v>
   <v>       0.25398003      -0.00285005       0.24912000 </v>
   <v>       0.24788999       0.24839000      -0.00342003 </v>
   <v>      -0.00562996       0.23617001       0.26379999 </v>
   <v>      -0.25120996      -0.01212001       0.26967001 </v>
   <v>       0.00201000       0.25541000      -0.26105999 </v>
   <v>       0.24177002      -0.24659003      -0.24981998 </v>
   <v>      -0.24963995      -0.25112000      -0.25243996 </v>
   <v>      -0.24255004       0.24437997      -0.25103001 </v>
   <v>       0.25133999      -0.25041998       0.24910999 </v>
   <v>      -0.24367000      -0.26108997       0.25767000 </v>
   <v>      -0.24686002       0.24616999       0.25492002 </v>
   <v>       0.24982001       0.24942998       0.24825000 </v>
   <v>       0.24900999       0.25315000      -0.25146000 </v>
   <v>      -0.48411003       0.01358000      -0.01924992 </v>
   <v>      -0.00158006      -0.49023002      -0.01386996 </v>
   <v>       0.02362000      -0.00216999       0.49557002 </v>
   <v>      -0.49480995      -0.23869001       0.00855000 </v>
   <v>      -0.49285006      -0.00023001       0.24673000 </v>
   <v>      -0.24160996      -0.49684002       0.00288000 </v>
   <v>      -0.00999997      -0.23784997       0.49746000 </v>
   <v>      -0.00948001       0.48088003       0.24100999 </v>
   <v>       0.24446000      -0.00176004      -0.49712002 </v>
   <v>      -0.26367999       0.00417000      -0.48937000 </v>
   <v>       0.24328000      -0.49927003      -0.00489006 </v>
   <v>      -0.49572003       0.24673000       0.00262000 </v>
   <v>      -0.00796004      -0.49944001      -0.24861998 </v>
   <v>      -0.00195991       0.24229999      -0.49871997 </v>
   <v>      -0.49991002       0.00061000      -0.26528002 </v>
   <v>      -0.26123997      -0.47171998      -0.26185001 </v>
   <v>       0.49950005      -0.24518001      -0.25182996 </v>
   <v>       0.24457999      -0.24951001       0.49983999 </v>
   <v>      -0.24599997      -0.27062001       0.49116997 </v>
   <v>      -0.49520997       0.24631001      -0.25289998 </v>
   <v>       0.24803003      -0.49835000       0.24955001 </v>
   <v>      -0.26448999      -0.48531996       0.26666001 </v>
   <v>      -0.49167000       0.25676999       0.25376001 </v>
   <v>      -0.49620997      -0.26073003       0.25905001 </v>
   <v>      -0.24692999       0.26163001      -0.49466998 </v>
   <v>       0.25272001       0.24823001      -0.49984997 </v>
   <v>       0.25679999       0.49462002      -0.25454998 </v>
   <v>       0.47957999      -0.01691999       0.49717999 </v>
   <v>      -0.49498994       0.49745998      -0.00165997 </v>
   <v>      -0.00572008      -0.49550001       0.49779000 </v>
   <v>      -0.49436004       0.23264998       0.49544997 </v>
   <v>      -0.49424994      -0.25041998       0.49720000 </v>
   <v>      -0.49299998      -0.49666998       0.25878999 </v>
   <v>      -0.49498997      -0.49782002      -0.26087997 </v>
   <v>      -0.25963999      -0.49803000      -0.49932997 </v>
   <v>       0.25841001      -0.49937998      -0.49870999 </v>
   <v>      -0.49461000      -0.47166995       0.49917999 </v>
  </varray>
 </structure>
 <varray name="primitive_index" >
  <v type="int" >        1 </v>
  <v type="int" >       25 </v>
  <v type="int" >       38 </v>
  <v type="int" >       34 </v>
  <v type="int" >       23 </v>
  <v type="int" >       29 </v>
  <v type="int" >       22 </v>
  <v type="int" >       59 </v>
  <v type="int" >       58 </v>
  <v type="int" >       56 </v>
  <v type="int" >        9 </v>
  <v type="int" >       18 </v>
  <v type="int" >       12 </v>
  <v type="int" >       17 </v>
  <v type="int" >        2 </v>
  <v type="int" >       14 </v>
  <v type="int" >        8 </v>
  <v type="int" >       16 </v>
  <v type="int" >       10 </v>
  <v type="int" >       45 </v>
  <v type="int" >       49 </v>
  <v type="int" >       30 </v>
  <v type="int" >       36 </v>
  <v type="int" >       39 </v>
  <v type="int" >       24 </v>
  <v type="int" >       21 </v>
  <v type="int" >       42 </v>
  <v type="int" >       53 </v>
  <v type="int" >       54 </v>
  <v type="int" >       61 </v>
  <v type="int" >       28 </v>
  <v type="int" >       26 </v>
  <v type="int" >       40 </v>
  <v type="int" >       47 </v>
  <v type="int" >       27 </v>
  <v type="int" >       43 </v>
  <v type="int" >       31 </v>
  <v type="int" >       37 </v>
  <v type="int" >       35 </v>
  <v type="int" >       48 </v>
  <v type="int" >       44 </v>
  <v type="int" >       33 </v>
  <v type="int" >       63 </v>
  <v type="int" >        7 </v>
  <v type="int" >       20 </v>
  <v type="int" >       64 </v>
  <v type="int" >        5 </v>
  <v type="int" >        3 </v>
  <v type="int" >       60 </v>
  <v type="int" >       15 </v>
  <v type="int" >       55 </v>
  <v type="int" >       11 </v>
  <v type="int" >       19 </v>
  <v type="int" >       13 </v>
  <v type="int" >       57 </v>
  <v type="int" >        4 </v>
  <v type="int" >        6 </v>
  <v type="int" >       32 </v>
  <v type="int" >       51 </v>
  <v type="int" >       41 </v>
  <v type="int" >       52 </v>
  <v type="int" >       50 </v>
  <v type="int" >       46 </v>
  <v type="int" >       62 </v>
 </varray>
 <kpoints>
  <generation param="Gamma">
   <v type="int" name="divisions">       3        3        3 </v>
   <v name="usershift">      0.00000000       0.00000000       0.00000000 </v>
   <v name="genvec1">      0.33333333      -0.00000000      -0.00000000 </v>
   <v name="genvec2">      0.00000000       0.33333333       0.00000000 </v>
   <v name="genvec3">      0.00000000       0.00000000       0.33333333 </v>
   <v name="shift">      0.00000000       0.00000000       0.00000000 </v>
  </generation>
  <varray name="kpointlist" >
   <v>       0.00000000       0.00000000       0.00000000 </v>
   <v>       0.33333333       0.00000000       0.00000000 </v>
   <v>       0.00000000       0.33333333       0.00000000 </v>
   <v>       0.33333333       0.33333333       0.00000000 </v>
   <v>      -0.33333333       0.33333333       0.00000000 </v>
   <v>       0.00000000       0.00000000       0.33333333 </v>
   <v>       0.33333333       0.00000000       0.33333333 </v>
   <v>      -0.33333333       0.00000000       0.33333333 </v>
   <v>       0.00000000       0.33333333       0.33333333 </v>
   <v>       0.33333333       0.33333333       0.33333333 </v>
   <v>      -0.33333333       0.33333333       0.33333333 </v>
   <v>       0.00000000      -0.33333333       0.33333333 </v>
   <v>       0.33333333      -0.33333333       0.33333333 </v>
   <v>      -0.33333333      -0.33333333       0.33333333 </v>
  </varray>
  <varray name="weights" >
   <v>       0.03703704 </v>
   <v>       0.07407407 </v>
   <v>       0.07407407 </v>
   <v>       0.07407407 </v>
   <v>       0.07407407 </v>
   <v>       0.07407407 </v>
   <v>       0.07407407 </v>
   <v>       0.07407407 </v>
   <v>       0.07407407 </v>
   <v>       0.07407407 </v>
   <v>       0.07407407 </v>
   <v>       0.07407407 </v>
   <v>       0.07407407 </v>
   <v>       0.07407407 </v>
  </varray>
 </kpoints>
 <parameters>
  <separator name="general" >
   <i type="string" name="SYSTEM">HEBCN</i>
   <i type="logical" name="LCOMPAT"> F  </i>
  </separator>
  <separator name="electronic" >
   <i type="string" name="PREC">normal</i>
   <i name="ENMAX">    400.00000000</i>
   <i name="ENAUG">    644.87300000</i>
   <i name="EDIFF">      0.00001000</i>
   <i type="int" name="IALGO">    68</i>
   <i type="int" name="IWAVPR">    10</i>
   <i type="int" name="NBANDS">   312</i>
   <i name="NELECT">    512.00000000</i>
   <i type="int" name="TURBO">     0</i>
   <i type="int" name="IRESTART">     0</i>
   <i type="int" name="NREBOOT">     0</i>
   <i type="int" name="NMIN">     0</i>
   <i name="EREF">      0.00000000</i>
   <separator name="electronic smearing" >
    <i type="int" name="ISMEAR">     0</i>
    <i name="SIGMA">      0.10000000</i>
    <i name="KSPACING">      0.50000000</i>
    <i type="logical" name="KGAMMA"> T  </i>
   </separator>
   <separator name="electronic projectors" >
    <i type="logical" name="LREAL"> F  </i>
    <v name="ROPT">      0.00000000      0.00000000      0.00000000      0.00000000      0.00000000      0.00000000      0.00000000</v>
    <i type="int" name="LMAXPAW">  -100</i>
    <i type="int" name="LMAXMIX">     2</i>
    <i type="logical" name="NLSPLINE"> F  </i>
   </separator>
   <separator name="electronic startup" >
    <i type="int" name="ISTART">     0</i>
    <i type="int" name="ICHARG">     2</i>
    <i type="int" name="INIWAV">     1</i>
   </separator>
   <separator name="electronic spin" >
    <i type="int" name="ISPIN">     1</i>
    <i type="logical" name="LNONCOLLINEAR"> F  </i>
    <v name="MAGMOM">      1.00000000      1.00000000      1.00000000      1.00000000      1.00000000      1.00000000      1.00000000      1.00000000      1.00000000      1.00000000      1.00000000      1.00000000      1.00000000      1.00000000      1.00000000      1.00000000      1.00000000      1.00000000      1.00000000      1.00000000
      1.00000000      1.00000000      1.00000000      1.00000000      1.00000000      1.00000000      1.00000000      1.00000000      1.00000000      1.00000000      1.00000000      1.00000000      1.00000000      1.00000000      1.00000000      1.00000000      1.00000000      1.00000000      1.00000000      1.00000000
      1.00000000      1.00000000      1.00000000      1.00000000      1.00000000      1.00000000      1.00000000      1.00000000      1.00000000      1.00000000      1.00000000      1.00000000      1.00000000      1.00000000      1.00000000      1.00000000      1.00000000      1.00000000      1.00000000      1.00000000
      1.00000000      1.00000000      1.00000000      1.00000000</v>
    <i name="NUPDOWN">     -1.00000000</i>
    <i type="logical" name="LSORBIT"> F  </i>
    <v name="SAXIS">      0.00000000      0.00000000      1.00000000</v>
    <i type="logical" name="LSPIRAL"> F  </i>
    <v name="QSPIRAL">      0.00000000      0.00000000      0.00000000</v>
    <i type="logical" name="LZEROZ"> F  </i>
   </separator>
   <separator name="electronic exchange-correlation" >
    <i type="logical" name="LASPH"> F  </i>
    <i type="logical" name="LMETAGGA"> F  </i>
   </separator>
   <separator name="electronic convergence" >
    <i type="int" name="NELM">    60</i>
    <i type="int" name="NELMDL">    -5</i>
    <i type="int" name="NELMIN">     2</i>
    <i name="ENINI">    400.00000000</i>
    <separator name="electronic convergence detail" >
     <i type="logical" name="LDIAG"> T  </i>
     <i type="logical" name="LSUBROT"> F  </i>
     <i name="WEIMIN">      0.00000000</i>
     <i name="EBREAK">      0.00000001</i>
     <i name="DEPER">      0.30000000</i>
     <i type="int" name="NRMM">     4</i>
     <i name="TIME">      0.40000000</i>
    </separator>
   </separator>
   <separator name="electronic mixer" >
    <i name="AMIX">      0.40000000</i>
    <i name="BMIX">      1.00000000</i>
    <i name="AMIN">      0.10000000</i>
    <i name="AMIX_MAG">      1.60000000</i>
    <i name="BMIX_MAG">      1.00000000</i>
    <separator name="electronic mixer details" >
     <i type="int" name="IMIX">     4</i>
     <i type="logical" name="MIXFIRST"> F  </i>
     <i type="int" name="MAXMIX">   -45</i>
     <i name="WC">    100.00000000</i>
     <i type="int" name="INIMIX">     1</i>
     <i type="int" name="MIXPRE">     1</i>
     <i type="int" name="MREMOVE">     5</i>
    </separator>
   </separator>
   <separator name="electronic dipolcorrection" >
    <i type="logical" name="LDIPOL"> F  </i>
    <i type="logical" name="LMONO"> F  </i>
    <i type="int" name="IDIPOL">     0</i>
    <i name="EPSILON">      1.00000000</i>
    <v name="DIPOL">   -100.00000000   -100.00000000   -100.00000000</v>
    <i name="EFIELD">      0.00000000</i>
   </separator>
  </separator>
  <separator name="grids" >
   <i type="int" name="NGX">    48</i>
   <i type="int" name="NGY">    48</i>
   <i type="int" name="NGZ">    48</i>
   <i type="int" name="NGXF">    96</i>
   <i type="int" name="NGYF">    96</i>
   <i type="int" name="NGZF">    96</i>
   <i type="logical" name="ADDGRID"> F  </i>
  </separator>
  <separator name="ionic" >
   <i type="int" name="NSW">     0</i>
   <i type="int" name="IBRION">    -1</i>
   <i type="int" name="MDALGO">     0</i>
   <i type="int" name="ISIF">     2</i>
   <i name="PSTRESS">      0.00000000</i>
   <i name="EDIFFG">     -0.01000000</i>
   <i type="int" name="NFREE">     0</i>
   <i name="POTIM">      0.50000000</i>
   <i name="SMASS">     -3.00000000</i>
   <i name="SCALEE">      1.00000000</i>
  </separator>
  <separator name="ionic md" >
   <i name="TEBEG">      0.00010000</i>
   <i name="TEEND">      0.00010000</i>
   <i type="int" name="NBLOCK">     1</i>
   <i type="int" name="KBLOCK">     1</i>
   <i type="int" name="NPACO">   256</i>
   <i name="APACO">     16.00000000</i>
  </separator>
  <separator name="symmetry" >
   <i type="int" name="ISYM">     2</i>
   <i name="SYMPREC">      0.00001000</i>
  </separator>
  <separator name="dos" >
   <i type="int" name="LORBIT">     0</i>
   <v name="RWIGS">     -1.00000000     -1.00000000     -1.00000000     -1.00000000     -1.00000000     -1.00000000     -1.00000000</v>
   <i type="int" name="NEDOS">   301</i>
   <i name="EMIN">     10.00000000</i>
   <i name="EMAX">    -10.00000000</i>
   <i name="EFERMI">      0.00000000</i>
  </separator>
  <separator name="writing" >
   <i type="int" name="NWRITE">     2</i>
   <i type="logical" name="LWAVE"> T  </i>
   <i type="logical" name="LDOWNSAMPLE"> F  </i>
   <i type="logical" name="LCHARG"> T  </i>
   <i type="logical" name="LPARD"> F  </i>
   <i type="logical" name="LVTOT"> F  </i>
   <i type="logical" name="LVHAR"> F  </i>
   <i type="logical" name="LELF"> F  </i>
   <i type="logical" name="LOPTICS"> F  </i>
   <v name="STM">      0.00000000      0.00000000      0.00000000      0.00000000      0.00000000      0.00000000      0.00000000</v>
  </separator>
  <separator name="performance" >
   <i type="int" name="NPAR">    24</i>
   <i type="int" name="NSIM">     4</i>
   <i type="int" name="NBLK">    -1</i>
   <i type="logical" name="LPLANE"> T  </i>
   <i type="logical" name="LSCALAPACK"> T  </i>
   <i type="logical" name="LSCAAWARE"> F  </i>
   <i type="logical" name="LSCALU"> F  </i>
   <i type="logical" name="LASYNC"> F  </i>
   <i type="logical" name="LORBITALREAL"> F  </i>
  </separator>
  <separator name="miscellaneous" >
   <i type="int" name="IDIOT">     3</i>
   <i type="int" name="ISPECIAL">     0</i>
   <i type="logical" name="LMUSIC"> F  </i>
   <v name="POMASS">     92.91000000    180.94800000    178.49000000     14.00100000     12.01100000     51.99600000    183.85000000</v>
   <v name="DARWINR">      0.00000000      0.00000000      0.00000000      0.00000000      0.00000000      0.00000000      0.00000000</v>
   <v name="DARWINV">      1.00000000      1.00000000      1.00000000      1.00000000      1.00000000      1.00000000      1.00000000</v>
   <i type="logical" name="LCORR"> T  </i>
  </separator>
  <i type="logical" name="GGA_COMPAT"> T  </i>
  <i type="logical" name="LBERRY"> F  </i>
  <i type="int" name="ICORELEVEL">     0</i>
  <i type="logical" name="LDAU"> F  </i>
  <i type="int" name="I_CONSTRAINED_M">     0</i>
  <separator name="electronic exchange-correlation" >
   <i type="string" name="GGA">--</i>
   <i type="int" name="VOSKOWN">     0</i>
   <i type="logical" name="LHFCALC"> F  </i>
   <i type="string" name="PRECFOCK"></i>
   <i type="logical" name="LSYMGRAD"> F  </i>
   <i type="logical" name="LHFONE"> F  </i>
   <i type="logical" name="LRHFCALC"> F  </i>
   <i type="logical" name="LTHOMAS"> F  </i>
   <i type="logical" name="LMODELHF"> F  </i>
   <i name="ENCUT4O">     -1.00000000</i>
   <i type="int" name="EXXOEP">     0</i>
   <i type="int" name="FOURORBIT">     0</i>
   <i name="AEXX">      0.00000000</i>
   <i name="HFALPHA">      0.00000000</i>
   <i name="MCALPHA">      0.00000000</i>
   <i name="ALDAX">      1.00000000</i>
   <i name="AGGAX">      1.00000000</i>
   <i name="ALDAC">      1.00000000</i>
   <i name="AGGAC">      1.00000000</i>
   <i type="int" name="NKREDX">     1</i>
   <i type="int" name="NKREDY">     1</i>
   <i type="int" name="NKREDZ">     1</i>
   <i type="logical" name="SHIFTRED"> F  </i>
   <i type="logical" name="ODDONLY"> F  </i>
   <i type="logical" name="EVENONLY"> F  </i>
   <i type="int" name="LMAXFOCK">     0</i>
   <i type="int" name="NMAXFOCKAE">     0</i>
   <i type="logical" name="LFOCKAEDFT"> F  </i>
   <i name="HFSCREEN">      0.00000000</i>
   <i name="HFSCREENC">      0.00000000</i>
   <i type="int" name="NBANDSGWLOW">     0</i>
  </separator>
  <separator name="vdW DFT" >
   <i type="logical" name="LUSE_VDW"> F  </i>
   <i name="Zab_VDW">     -0.84910000</i>
   <i name="PARAM1">      0.12340000</i>
   <i name="PARAM2">      1.00000000</i>
   <i name="PARAM3">      0.00000000</i>
  </separator>
  <separator name="model GW" >
   <i type="int" name="MODEL_GW">     0</i>
   <i name="MODEL_EPS0">      6.77734242</i>
   <i name="MODEL_ALPHA">      1.00000000</i>
  </separator>
  <separator name="linear response parameters" >
   <i type="logical" name="LEPSILON"> F  </i>
   <i type="logical" name="LRPA"> F  </i>
   <i type="logical" name="LNABLA"> F  </i>
   <i type="logical" name="LVEL"> F  </i>
   <i type="int" name="KINTER">     0</i>
   <i name="CSHIFT">      0.10000000</i>
   <i name="OMEGAMAX">     -1.00000000</i>
   <i name="DEG_THRESHOLD">      0.00200000</i>
   <i name="RTIME">     -0.10000000</i>
   <i name="WPLASMAI">      0.00000000</i>
   <v name="DFIELD">      0.00000000      0.00000000      0.00000000</v>
   <v name="WPLASMA">      0.00000000      0.00000000      0.00000000      0.00000000      0.00000000      0.00000000      0.00000000      0.00000000      0.00000000</v>
  </separator>
  <separator name="orbital magnetization" >
   <i type="logical" name="NUCIND"> F  </i>
   <v name="MAGPOS">      0.00000000      0.00000000      0.00000000</v>
   <i type="logical" name="LNICSALL"> T  </i>
   <i type="logical" name="ORBITALMAG"> F  </i>
   <i type="logical" name="LMAGBLOCH"> F  </i>
   <i type="logical" name="LCHIMAG"> F  </i>
   <i type="logical" name="LGAUGE"> T  </i>
   <i type="int" name="MAGATOM">     0</i>
   <v name="MAGDIPOL">      0.00000000      0.00000000      0.00000000</v>
   <v name="AVECCONST">      0.00000000      0.00000000      0.00000000</v>
  </separator>
  <separator name="response functions" >
   <i type="logical" name="LADDER"> F  </i>
   <i type="logical" name="LRPAFORCE"> F  </i>
   <i type="logical" name="LFXC"> F  </i>
   <i type="logical" name="LHARTREE"> T  </i>
   <i type="int" name="IBSE">     0</i>
   <v type="int" name="KPOINT">    -1     0     0     0</v>
   <i type="logical" name="LTCTE"> F  </i>
   <i type="logical" name="LTETE"> F  </i>
   <i type="logical" name="LTRIPLET"> F  </i>
   <i type="logical" name="LFXCEPS"> F  </i>
   <i type="logical" name="LFXHEG"> F  </i>
   <i type="int" name="NATURALO">     2</i>
   <i type="logical" name="L2ORDER"> F  </i>
   <i type="logical" name="LMP2LT"> F  </i>
   <i type="logical" name="LUSEW"> F  </i>
   <i name="ENCUTGW">     -2.00000000</i>
   <i name="ENCUTGWSOFT">     -2.00000000</i>
   <i name="ENCUTLF">     -1.00000000</i>
   <i type="int" name="LMAXMP2">    -1</i>
   <i name="SCISSOR">      0.00000000</i>
   <i type="int" name="NOMEGA">     0</i>
   <i type="int" name="NOMEGAR">     0</i>
   <i type="int" name="NBANDSGW">    -1</i>
   <i type="int" name="NBANDSO">    -1</i>
   <i type="int" name="NBANDSV">    -1</i>
   <i type="int" name="NELM">    60</i>
   <i type="int" name="NELMHF">     1</i>
   <i type="int" name="DIM">     3</i>
   <i type="int" name="ANTIRES">     0</i>
   <i name="OMEGAMAX">    -30.00000000</i>
   <i name="OMEGAMIN">    -30.00000000</i>
   <i name="OMEGATL">   -200.00000000</i>
   <i type="int" name="OMEGAGRID">   140</i>
   <i name="CSHIFT">     -0.10000000</i>
   <i type="logical" name="SELFENERGY"> F  </i>
   <i type="logical" name="LSPECTRAL"> F  </i>
   <i type="logical" name="LSPECTRALGW"> F  </i>
   <i type="logical" name="LSINGLES"> F  </i>
   <i type="logical" name="LFERMIGW"> F  </i>
   <i type="logical" name="ODDONLYGW"> F  </i>
   <i type="logical" name="EVENONLYGW"> F  </i>
   <i type="int" name="NKREDLFX">     1</i>
   <i type="int" name="NKREDLFY">     1</i>
   <i type="int" name="NKREDLFZ">     1</i>
   <i type="int" name="MAXMEM">  2800</i>
   <i type="int" name="TELESCOPE">     0</i>
   <i type="int" name="TAUPAR">     1</i>
   <i type="int" name="OMEGAPAR">    -1</i>
   <i name="LAMBDA">      1.00000000</i>
  </separator>
  <separator name="External order field" >
   <i name="OFIELD_KAPPA">      0.00000000</i>
   <v name="OFIELD_K">      0.00000000      0.00000000      0.00000000</v>
   <i name="OFIELD_Q6_NEAR">      0.00000000</i>
   <i name="OFIELD_Q6_FAR">      0.00000000</i>
   <i name="OFIELD_A">      0.00000000</i>
  </separator>
 </parameters>
 <atominfo>
  <atoms>      64 </atoms>
  <types>       7 </types>
  <array name="atoms" >
   <dimension dim="1">ion</dimension>
   <field type="string">element</field>
   <field type="int">atomtype</field>
   <set>
    <rc><c>Nb</c><c>   1</c></rc>
    <rc><c>Nb</c><c>   1</c></rc>
    <rc><c>Nb</c><c>   1</c></rc>
    <rc><c>Nb</c><c>   1</c></rc>
    <rc><c>Nb</c><c>   1</c></rc>
    <rc><c>Nb</c><c>   1</c></rc>
    <rc><c>Nb</c><c>   1</c></rc>
    <rc><c>Ta</c><c>   2</c></rc>
    <rc><c>Ta</c><c>   2</c></rc>
    <rc><c>Ta</c><c>   2</c></rc>
    <rc><c>Ta</c><c>   2</c></rc>
    <rc><c>Ta</c><c>   2</c></rc>
    <rc><c>Ta</c><c>   2</c></rc>
    <rc><c>Hf</c><c>   3</c></rc>
    <rc><c>Hf</c><c>   3</c></rc>
    <rc><c>Hf</c><c>   3</c></rc>
    <rc><c>Hf</c><c>   3</c></rc>
    <rc><c>Hf</c><c>   3</c></rc>
    <rc><c>Hf</c><c>   3</c></rc>
    <rc><c>Hf</c><c>   3</c></rc>
    <rc><c>N </c><c>   4</c></rc>
    <rc><c>N </c><c>   4</c></rc>
    <rc><c>N </c><c>   4</c></rc>
    <rc><c>N </c><c>   4</c></rc>
    <rc><c>N </c><c>   4</c></rc>
    <rc><c>N </c><c>   4</c></rc>
    <rc><c>N </c><c>   4</c></rc>
    <rc><c>N </c><c>   4</c></rc>
    <rc><c>N </c><c>   4</c></rc>
    <rc><c>N </c><c>   4</c></rc>
    <rc><c>N </c><c>   4</c></rc>
    <rc><c>N </c><c>   4</c></rc>
    <rc><c>N </c><c>   4</c></rc>
    <rc><c>C </c><c>   5</c></rc>
    <rc><c>C </c><c>   5</c></rc>
    <rc><c>C </c><c>   5</c></rc>
    <rc><c>C </c><c>   5</c></rc>
    <rc><c>C </c><c>   5</c></rc>
    <rc><c>C </c><c>   5</c></rc>
    <rc><c>C </c><c>   5</c></rc>
    <rc><c>C </c><c>   5</c></rc>
    <rc><c>C </c><c>   5</c></rc>
    <rc><c>C </c><c>   5</c></rc>
    <rc><c>C </c><c>   5</c></rc>
    <rc><c>C </c><c>   5</c></rc>
    <rc><c>C </c><c>   5</c></rc>
    <rc><c>C </c><c>   5</c></rc>
    <rc><c>C </c><c>   5</c></rc>
    <rc><c>C </c><c>   5</c></rc>
    <rc><c>C </c><c>   5</c></rc>
    <rc><c>C </c><c>   5</c></rc>
    <rc><c>C </c><c>   5</c></rc>
    <rc><c>Cr</c><c>   6</c></rc>
    <rc><c>Cr</c><c>   6</c></rc>
    <rc><c>Cr</c><c>   6</c></rc>
    <rc><c>Cr</c><c>   6</c></rc>
    <rc><c>Cr</c><c>   6</c></rc>
    <rc><c>Cr</c><c>   6</c></rc>
    <rc><c>W </c><c>   7</c></rc>
    <rc><c>W </c><c>   7</c></rc>
    <rc><c>W </c><c>   7</c></rc>
    <rc><c>W </c><c>   7</c></rc>
    <rc><c>W </c><c>   7</c></rc>
    <rc><c>W </c><c>   7</c></rc>
   </set>
  </array>
  <array name="atomtypes" >
   <dimension dim="1">type</dimension>
   <field type="int">atomspertype</field>
   <field type="string">element</field>
   <field>mass</field>
   <field>valence</field>
   <field type="string">pseudopotential</field>
   <set>
    <rc><c>   7</c><c>Nb</c><c>     92.91000000</c><c>     13.00000000</c><c> PAW_PBE Nb_sv 17Jan2003                </c></rc>
    <rc><c>   6</c><c>Ta</c><c>    180.94800000</c><c>     11.00000000</c><c> PAW_PBE Ta_pv 07Sep2000                </c></rc>
    <rc><c>   7</c><c>Hf</c><c>    178.49000000</c><c>     10.00000000</c><c> PAW_PBE Hf_pv 06Sep2000                </c></rc>
    <rc><c>  13</c><c>N </c><c>     14.00100000</c><c>      5.00000000</c><c> PAW_PBE N 08Apr2002                    </c></rc>
    <rc><c>  19</c><c>C </c><c>     12.01100000</c><c>      4.00000000</c><c> PAW_PBE C 08Apr2002                    </c></rc>
    <rc><c>   6</c><c>Cr</c><c>     51.99600000</c><c>     12.00000000</c><c> PAW_PBE Cr_pv 07Sep2000                </c></rc>
    <rc><c>   6</c><c>W </c><c>    183.85000000</c><c>     12.00000000</c><c> PAW_PBE W_pv 06Sep2000                 </c></rc>
   </set>
  </array>
 </atominfo>
 <structure name="initialpos" >
  <crystal>
   <varray name="basis" >
    <v>       8.93249989       0.00000000       0.00000000 </v>
    <v>       0.00575300       9.05559834       0.00000000 </v>
    <v>       0.03210180      -0.01574346       8.93712807 </v>
   </varray>
   <i name="volume">    722.91652451 </i>
   <varray name="rec_basis" >
    <v>       0.11195074      -0.00007112      -0.00040225 </v>
    <v>       0.00000000       0.11042893       0.00019453 </v>
    <v>       0.00000000       0.00000000       0.11189277 </v>
   </varray>
  </crystal>
  <varray name="positions" >
   <v>       0.99688001       0.99204997       0.99924002 </v>
   <v>       0.25398003       0.99714995       0.24912000 </v>
   <v>       0.24803003       0.50165000       0.24955001 </v>
   <v>       0.50501006       0.49745998       0.99834003 </v>
   <v>       0.50479003       0.24631001       0.74710002 </v>
   <v>       0.99427992       0.50449999       0.49779000 </v>
   <v>       0.49950005       0.75481999       0.74817004 </v>
   <v>       0.99437004       0.23617001       0.26379999 </v>
   <v>       0.75718000       0.74102998       0.01100000 </v>
   <v>       0.00201000       0.25541000       0.73894001 </v>
   <v>       0.75307001       0.26163001       0.50533002 </v>
   <v>       0.99514004       0.74492004       0.74511997 </v>
   <v>       0.25679999       0.49462002       0.74545002 </v>
   <v>       0.24788999       0.24839000       0.99657997 </v>
   <v>       0.50833000       0.25676999       0.25376001 </v>
   <v>       0.74879004       0.98787999       0.26967001 </v>
   <v>       0.75719000       0.25603001       0.99591997 </v>
   <v>       0.24762001       0.74973999       0.99974006 </v>
   <v>       0.25272001       0.24823001       0.50015003 </v>
   <v>       0.24457999       0.75048999       0.49983999 </v>
   <v>       0.24982001       0.24942998       0.24825000 </v>
   <v>       0.26146999       0.99984002       0.99295996 </v>
   <v>       0.00281000       0.25024000       0.00130000 </v>
   <v>       0.75313998       0.24617000       0.25492002 </v>
   <v>       0.74767001       0.99748000       0.01202000 </v>
   <v>       0.50714994       0.99977000       0.24673000 </v>
   <v>       0.99051999       0.48088002       0.24100998 </v>
   <v>       0.50519005       0.76130999       0.00855000 </v>
   <v>       0.98896989       0.00202000       0.73708999 </v>
   <v>       0.75744996       0.24437997       0.74896999 </v>
   <v>       0.73632001       0.00417000       0.51063000 </v>
   <v>       0.50563996       0.23264999       0.49544997 </v>
   <v>       0.50008998       0.00061000       0.73471998 </v>
   <v>       0.99720000       0.99771992       0.25899999 </v>
   <v>       0.50427997       0.24673000       0.00262000 </v>
   <v>       0.25133999       0.74958002       0.24910999 </v>
   <v>       0.24328000       0.50072997       0.99510994 </v>
   <v>       0.99837005       0.74313996       0.00460000 </v>
   <v>       0.75633000       0.73891003       0.25767000 </v>
   <v>       0.75839004       0.50315998       0.00288000 </v>
   <v>       0.50700002       0.50333002       0.25878999 </v>
   <v>       0.24900999       0.25315000       0.74854000 </v>
   <v>       0.24446000       0.99823996       0.50287998 </v>
   <v>       0.99804009       0.24229999       0.50128003 </v>
   <v>       0.24177002       0.75340997       0.75018002 </v>
   <v>       0.25841001       0.50062002       0.50129001 </v>
   <v>       0.99000004       0.76215003       0.49746000 </v>
   <v>       0.99203996       0.50055999       0.75138002 </v>
   <v>       0.75036005       0.74888000       0.74756004 </v>
   <v>       0.74036002       0.50197000       0.50067003 </v>
   <v>       0.50575006       0.74958002       0.49720000 </v>
   <v>       0.50501003       0.50217998       0.73912003 </v>
   <v>       0.51588997       0.01358000       0.98075008 </v>
   <v>       0.99841994       0.50976998       0.98613004 </v>
   <v>       0.50379003       0.73926997       0.25905001 </v>
   <v>       0.23780002       0.01082000       0.74607998 </v>
   <v>       0.47957999       0.98308000       0.49717999 </v>
   <v>       0.74279003       0.97869994       0.76450995 </v>
   <v>       0.99864998       0.77573999       0.26102000 </v>
   <v>       0.73551001       0.51468004       0.26666001 </v>
   <v>       0.02362000       0.99783001       0.49557002 </v>
   <v>       0.50539000       0.52833005       0.49917999 </v>
   <v>       0.73876003       0.52828003       0.73814999 </v>
   <v>       0.75400003       0.72937999       0.49116997 </v>
  </varray>
 </structure>
 <calculation>
  <scstep>
   <time name="dav">   33.48   34.20</time>
   <time name="total">   33.53   34.25</time>
   <energy>
    <i name="alphaZ">   4311.70706476 </i>
    <i name="ewald"> -41855.10752452 </i>
    <i name="hartreedc">  -7147.31153054 </i>
    <i name="XCdc">   1758.09057647 </i>
    <i name="pawpsdc">  28559.57951195 </i>
    <i name="pawaedc"> -28491.33313261 </i>
    <i name="eentropy">     -0.08194097 </i>
    <i name="bandstr">   2392.23412349 </i>
    <i name="atom">  46857.32045255 </i>
    <i name="e_fr_energy">   6385.09760058 </i>
    <i name="e_wo_entrp">   6385.17954155 </i>
    <i name="e_0_energy">   6385.13857107 </i>
   </energy>
  </scstep>
  <scstep>
   <time name="dav">   34.95   35.10</time>
   <time name="total">   34.95   35.10</time>
   <energy>
    <i name="e_fr_energy">    256.63985519 </i>
    <i name="e_wo_entrp">    256.75485397 </i>
    <i name="e_0_energy">    256.69735458 </i>
   </energy>
  </scstep>
  <scstep>
   <time name="dav">   48.31   49.63</time>
   <time name="total">   48.31   49.63</time>
   <energy>
    <i name="e_fr_energy">   -692.80653739 </i>
    <i name="e_wo_entrp">   -692.68811593 </i>
    <i name="e_0_energy">   -692.74732666 </i>
   </energy>
  </scstep>
  <scstep>
   <time name="dav">   50.78   51.40</time>
   <time name="total">   50.78   51.40</time>
   <energy>
    <i name="e_fr_energy">   -784.93487658 </i>
    <i name="e_wo_entrp">   -784.81308851 </i>
    <i name="e_0_energy">   -784.87398255 </i>
   </energy>
  </scstep>
  <scstep>
   <time name="dav">   59.55   60.58</time>
   <time name="total">   59.93   60.97</time>
   <energy>
    <i name="e_fr_energy">   -797.85396041 </i>
    <i name="e_wo_entrp">   -797.73374271 </i>
    <i name="e_0_energy">   -797.79385156 </i>
   </energy>
  </scstep>
  <scstep>
   <time name="diag">    2.15    2.18</time>
   <time name="diis">   34.68   35.14</time>
   <time name="orth">    0.48    0.48</time>
   <time name="total">   37.75   38.26</time>
   <energy>
    <i name="e_fr_energy">   -977.44474037 </i>
    <i name="e_wo_entrp">   -977.34920154 </i>
    <i name="e_0_energy">   -977.39697096 </i>
   </energy>
  </scstep>
  <scstep>
   <time name="diag">    2.12    2.14</time>
   <time name="diis">   31.89   32.35</time>
   <time name="orth">    0.51    0.51</time>
   <time name="total">   34.93   35.43</time>
   <energy>
    <i name="e_fr_energy">   -661.57374557 </i>
    <i name="e_wo_entrp">   -661.44532566 </i>
    <i name="e_0_energy">   -661.50953562 </i>
   </energy>
  </scstep>
  <scstep>
   <time name="diag">    2.10    2.16</time>
   <time name="diis">   41.11   42.62</time>
   <time name="orth">    0.46    0.47</time>
   <time name="total">   44.14   45.74</time>
   <energy>
    <i name="e_fr_energy">   -677.59963367 </i>
    <i name="e_wo_entrp">   -677.46582578 </i>
    <i name="e_0_energy">   -677.53272972 </i>
   </energy>
  </scstep>
  <scstep>
   <time name="diag">    2.15    2.21</time>
   <time name="diis">   35.23   36.51</time>
   <time name="orth">    0.51    0.52</time>
   <time name="total">   38.32   39.68</time>
   <energy>
    <i name="e_fr_energy">   -667.90855653 </i>
    <i name="e_wo_entrp">   -667.71225931 </i>
    <i name="e_0_energy">   -667.81040792 </i>
   </energy>
  </scstep>
  <scstep>
   <time name="diag">    2.10    2.14</time>
   <time name="diis">   42.35   43.07</time>
   <time name="orth">    0.50    0.51</time>
   <time name="total">   45.37   46.16</time>
   <energy>
    <i name="e_fr_energy">   -665.13351874 </i>
    <i name="e_wo_entrp">   -664.92001679 </i>
    <i name="e_0_energy">   -665.02676777 </i>
   </energy>
  </scstep>
  <scstep>
   <time name="diag">    2.19    2.20</time>
   <time name="diis">   33.24   33.39</time>
   <time name="orth">    0.47    0.47</time>
   <time name="total">   36.32   36.48</time>
   <energy>
    <i name="e_fr_energy">   -666.74939850 </i>
    <i name="e_wo_entrp">   -666.57046974 </i>
    <i name="e_0_energy">   -666.65993412 </i>
   </energy>
  </scstep>
  <scstep>
   <time name="diag">    2.10    2.15</time>
   <time name="diis">   36.39   37.60</time>
   <time name="orth">    0.51    0.53</time>
   <time name="total">   39.46   40.74</time>
   <energy>
    <i name="e_fr_energy">   -663.83336761 </i>
    <i name="e_wo_entrp">   -663.62046632 </i>
    <i name="e_0_energy">   -663.72691696 </i>
   </energy>
  </scstep>
  <scstep>
   <time name="diag">    2.12    2.15</time>
   <time name="diis">   38.72   39.22</time>
   <time name="orth">    0.54    0.56</time>
   <time name="total">   41.81   42.36</time>
   <energy>
    <i name="e_fr_energy">   -665.00349001 </i>
    <i name="e_wo_entrp">   -664.79373702 </i>
    <i name="e_0_energy">   -664.89861352 </i>
   </energy>
  </scstep>
  <scstep>
   <time name="diag">    2.18    2.20</time>
   <time name="diis">   37.97   38.52</time>
   <time name="orth">    0.46    0.47</time>
   <time name="total">   41.05   41.63</time>
   <energy>
    <i name="e_fr_energy">   -663.80160872 </i>
    <i name="e_wo_entrp">   -663.59643974 </i>
    <i name="e_0_energy">   -663.69902423 </i>
   </energy>
  </scstep>
  <scstep>
   <time name="diag">    2.11    2.16</time>
   <time name="diis">   37.61   38.95</time>
   <time name="orth">    0.46    0.47</time>
   <time name="total">   40.61   42.03</time>
   <energy>
    <i name="e_fr_energy">   -664.03464778 </i>
    <i name="e_wo_entrp">   -663.84486414 </i>
    <i name="e_0_energy">   -663.93975596 </i>
   </energy>
  </scstep>
  <scstep>
   <time name="diag">    2.14    2.17</time>
   <time name="diis">   40.10   40.67</time>
   <time name="orth">    0.51    0.51</time>
   <time name="total">   43.18   43.78</time>
   <energy>
    <i name="e_fr_energy">   -663.39162665 </i>
    <i name="e_wo_entrp">   -663.17724074 </i>
    <i name="e_0_energy">   -663.28443370 </i>
   </energy>
  </scstep>
  <scstep>
   <time name="diag">    2.13    2.18</time>
   <time name="diis">   37.11   38.51</time>
   <time name="orth">    0.46    0.47</time>
   <time name="total">   40.13   41.61</time>
   <energy>
    <i name="e_fr_energy">   -663.43373092 </i>
    <i name="e_wo_entrp">   -663.22447884 </i>
    <i name="e_0_energy">   -663.32910488 </i>
   </energy>
  </scstep>
  <scstep>
   <time name="diag">    2.12    2.15</time>
   <time name="diis">   41.85   42.44</time>
   <time name="orth">    0.46    0.47</time>
   <time name="total">   44.87   45.50</time>
   <energy>
    <i name="e_fr_energy">   -663.38397213 </i>
    <i name="e_wo_entrp">   -663.16794481 </i>
    <i name="e_0_energy">   -663.27595847 </i>
   </energy>
  </scstep>
  <scstep>
   <time name="diag">    2.13    2.16</time>
   <time name="diis">   34.95   35.43</time>
   <time name="orth">    0.50    0.51</time>
   <time name="total">   38.01   38.53</time>
   <energy>
    <i name="e_fr_energy">   -663.39215983 </i>
    <i name="e_wo_entrp">   -663.17593635 </i>
    <i name="e_0_energy">   -663.28404809 </i>
   </energy>
  </scstep>
  <scstep>
   <time name="diag">    2.10    2.15</time>
   <time name="diis">   39.54   40.62</time>
   <time name="orth">    0.46    0.47</time>
   <time name="total">   42.54   43.69</time>
   <energy>
    <i name="e_fr_energy">   -663.38147208 </i>
    <i name="e_wo_entrp">   -663.16487183 </i>
    <i name="e_0_energy">   -663.27317196 </i>
   </energy>
  </scstep>
  <scstep>
   <time name="diag">    2.12    2.15</time>
   <time name="diis">   39.59   40.13</time>
   <time name="orth">    0.46    0.47</time>
   <time name="total">   42.62   43.19</time>
   <energy>
    <i name="e_fr_energy">   -663.37981183 </i>
    <i name="e_wo_entrp">   -663.16387724 </i>
    <i name="e_0_energy">   -663.27184454 </i>
   </energy>
  </scstep>
  <scstep>
   <time name="diag">    2.13    2.15</time>
   <time name="diis">   36.99   37.51</time>
   <time name="orth">    0.51    0.51</time>
   <time name="total">   40.06   40.60</time>
   <energy>
    <i name="e_fr_energy">   -663.38126644 </i>
    <i name="e_wo_entrp">   -663.16547960 </i>
    <i name="e_0_energy">   -663.27337302 </i>
   </energy>
  </scstep>
  <scstep>
   <time name="diag">    2.15    2.17</time>
   <time name="diis">   36.72   37.33</time>
   <time name="orth">    0.46    0.47</time>
   <time name="total">   39.79   40.45</time>
   <energy>
    <i name="e_fr_energy">   -663.38364138 </i>
    <i name="e_wo_entrp">   -663.16779833 </i>
    <i name="e_0_energy">   -663.27571986 </i>
   </energy>
  </scstep>
  <scstep>
   <time name="diag">    2.17    2.20</time>
   <time name="diis">   34.20   34.74</time>
   <time name="orth">    0.51    0.51</time>
   <time name="total">   37.30   37.89</time>
   <energy>
    <i name="e_fr_energy">   -663.38419050 </i>
    <i name="e_wo_entrp">   -663.16841330 </i>
    <i name="e_0_energy">   -663.27630190 </i>
   </energy>
  </scstep>
  <scstep>
   <time name="diag">    2.16    2.18</time>
   <time name="diis">   33.66   34.12</time>
   <time name="orth">    0.47    0.47</time>
   <time name="total">   36.74   37.24</time>
   <energy>
    <i name="e_fr_energy">   -663.38476081 </i>
    <i name="e_wo_entrp">   -663.16886595 </i>
    <i name="e_0_energy">   -663.27681338 </i>
   </energy>
  </scstep>
  <scstep>
   <time name="diag">    2.12    2.17</time>
   <time name="diis">   29.96   30.83</time>
   <time name="orth">    0.46    0.47</time>
   <time name="total">   33.00   33.93</time>
   <energy>
    <i name="e_fr_energy">   -663.38495481 </i>
    <i name="e_wo_entrp">   -663.16907925 </i>
    <i name="e_0_energy">   -663.27701703 </i>
   </energy>
  </scstep>
  <scstep>
   <time name="diag">    2.12    2.15</time>
   <time name="diis">   30.85   31.26</time>
   <time name="orth">    0.51    0.52</time>
   <time name="total">   33.91   34.36</time>
   <energy>
    <i name="e_fr_energy">   -663.38510072 </i>
    <i name="e_wo_entrp">   -663.16923425 </i>
    <i name="e_0_energy">   -663.27716749 </i>
   </energy>
  </scstep>
  <scstep>
   <time name="diag">    2.10    2.16</time>
   <time name="diis">   29.27   29.83</time>
   <time name="orth">    0.51    0.51</time>
   <time name="total">   32.30   32.94</time>
   <energy>
    <i name="e_fr_energy">   -663.38516525 </i>
    <i name="e_wo_entrp">   -663.16930176 </i>
    <i name="e_0_energy">   -663.27723350 </i>
   </energy>
  </scstep>
  <scstep>
   <time name="diag">    2.11    2.16</time>
   <time name="diis">   27.96   28.93</time>
   <time name="orth">    0.57    0.62</time>
   <time name="total">   31.07   32.15</time>
   <energy>
    <i name="e_fr_energy">   -663.38520442 </i>
    <i name="e_wo_entrp">   -663.16934192 </i>
    <i name="e_0_energy">   -663.27727317 </i>
   </energy>
  </scstep>
  <scstep>
   <time name="diag">    2.14    2.17</time>
   <time name="diis">   28.14   28.46</time>
   <time name="orth">    0.50    0.51</time>
   <time name="total">   31.21   31.57</time>
   <energy>
    <i name="e_fr_energy">   -663.38522796 </i>
    <i name="e_wo_entrp">   -663.16936216 </i>
    <i name="e_0_energy">   -663.27729506 </i>
   </energy>
  </scstep>
  <scstep>
   <time name="diag">    2.18    2.19</time>
   <time name="diis">   26.99   27.32</time>
   <time name="orth">    0.47    0.47</time>
   <time name="total">   30.11   30.45</time>
   <energy>
    <i name="e_fr_energy">   -663.38524224 </i>
    <i name="e_wo_entrp">   -663.16937401 </i>
    <i name="e_0_energy">   -663.27730812 </i>
   </energy>
  </scstep>
  <scstep>
   <time name="diag">    2.13    2.19</time>
   <time name="diis">   25.72   26.18</time>
   <time name="orth">    0.50    0.51</time>
   <time name="total">   28.39   28.91</time>
   <energy>
    <i name="alphaZ">   4311.70706476 </i>
    <i name="ewald"> -41855.10752452 </i>
    <i name="hartreedc">  -6675.69788492 </i>
    <i name="XCdc">   1747.84412010 </i>
    <i name="pawpsdc">  29809.55014717 </i>
    <i name="pawaedc"> -29799.01724504 </i>
    <i name="eentropy">     -0.21587076 </i>
    <i name="bandstr">  -5059.76850987 </i>
    <i name="atom">  46857.32045255 </i>
    <i name="e_fr_energy">   -663.38525053 </i>
    <i name="e_wo_entrp">   -663.16937977 </i>
    <i name="e_0_energy">   -663.27731515 </i>
   </energy>
  </scstep>
  <structure>
   <crystal>
    <varray name="basis" >
     <v>       8.93249989       0.00000000       0.00000000 </v>
     <v>       0.00575300       9.05559834       0.00000000 </v>
     <v>       0.03210180      -0.01574346       8.93712807 </v>
    </varray>
    <i name="volume">    722.91652451 </i>
    <varray name="rec_basis" >
     <v>       0.11195074      -0.00007112      -0.00040225 </v>
     <v>       0.00000000       0.11042893       0.00019453 </v>
     <v>       0.00000000       0.00000000       0.11189277 </v>
    </varray>
   </crystal>
   <varray name="positions" >
    <v>       0.99688001       0.99204997       0.99924002 </v>
    <v>       0.25398003       0.99714995       0.24912000 </v>
    <v>       0.24803003       0.50165000       0.24955001 </v>
    <v>       0.50501006       0.49745998       0.99834003 </v>
    <v>       0.50479003       0.24631001       0.74710002 </v>
    <v>       0.99427992       0.50449999       0.49779000 </v>
    <v>       0.49950005       0.75481999       0.74817004 </v>
    <v>       0.99437004       0.23617001       0.26379999 </v>
    <v>       0.75718000       0.74102998       0.01100000 </v>
    <v>       0.00201000       0.25541000       0.73894001 </v>
    <v>       0.75307001       0.26163001       0.50533002 </v>
    <v>       0.99514004       0.74492004       0.74511997 </v>
    <v>       0.25679999       0.49462002       0.74545002 </v>
    <v>       0.24788999       0.24839000       0.99657997 </v>
    <v>       0.50833000       0.25676999       0.25376001 </v>
    <v>       0.74879004       0.98787999       0.26967001 </v>
    <v>       0.75719000       0.25603001       0.99591997 </v>
    <v>       0.24762001       0.74973999       0.99974006 </v>
    <v>       0.25272001       0.24823001       0.50015003 </v>
    <v>       0.24457999       0.75048999       0.49983999 </v>
    <v>       0.24982001       0.24942998       0.24825000 </v>
    <v>       0.26146999       0.99984002       0.99295996 </v>
    <v>       0.00281000       0.25024000       0.00130000 </v>
    <v>       0.75313998       0.24617000       0.25492002 </v>
    <v>       0.74767001       0.99748000       0.01202000 </v>
    <v>       0.50714994       0.99977000       0.24673000 </v>
    <v>       0.99051999       0.48088002       0.24100998 </v>
    <v>       0.50519005       0.76130999       0.00855000 </v>
    <v>       0.98896989       0.00202000       0.73708999 </v>
    <v>       0.75744996       0.24437997       0.74896999 </v>
    <v>       0.73632001       0.00417000       0.51063000 </v>
    <v>       0.50563996       0.23264999       0.49544997 </v>
    <v>       0.50008998       0.00061000       0.73471998 </v>
    <v>       0.99720000       0.99771992       0.25899999 </v>
    <v>       0.50427997       0.24673000       0.00262000 </v>
    <v>       0.25133999       0.74958002       0.24910999 </v>
    <v>       0.24328000       0.50072997       0.99510994 </v>
    <v>       0.99837005       0.74313996       0.00460000 </v>
    <v>       0.75633000       0.73891003       0.25767000 </v>
    <v>       0.75839004       0.50315998       0.00288000 </v>
    <v>       0.50700002       0.50333002       0.25878999 </v>
    <v>       0.24900999       0.25315000       0.74854000 </v>
    <v>       0.24446000       0.99823996       0.50287998 </v>
    <v>       0.99804009       0.24229999       0.50128003 </v>
    <v>       0.24177002       0.75340997       0.75018002 </v>
    <v>       0.25841001       0.50062002       0.50129001 </v>
    <v>       0.99000004       0.76215003       0.49746000 </v>
    <v>       0.99203996       0.50055999       0.75138002 </v>
    <v>       0.75036005       0.74888000       0.74756004 </v>
    <v>       0.74036002       0.50197000       0.50067003 </v>
    <v>       0.50575006       0.74958002       0.49720000 </v>
    <v>       0.50501003       0.50217998       0.73912003 </v>
    <v>       0.51588997       0.01358000       0.98075008 </v>
    <v>       0.99841994       0.50976998       0.98613004 </v>
    <v>       0.50379003       0.73926997       0.25905001 </v>
    <v>       0.23780002       0.01082000       0.74607998 </v>
    <v>       0.47957999       0.98308000       0.49717999 </v>
    <v>       0.74279003       0.97869994       0.76450995 </v>
    <v>       0.99864998       0.77573999       0.26102000 </v>
    <v>       0.73551001       0.51468004       0.26666001 </v>
    <v>       0.02362000       0.99783001       0.49557002 </v>
    <v>       0.50539000       0.52833005       0.49917999 </v>
    <v>       0.73876003       0.52828003       0.73814999 </v>
    <v>       0.75400003       0.72937999       0.49116997 </v>
   </varray>
  </structure>
  <varray name="forces" >
   <v>       0.15100425      -0.30322689      -0.32742367 </v>
   <v>       0.00392557      -0.88240390      -0.24667297 </v>
   <v>       0.60791187       0.88995057      -0.47407909 </v>
   <v>      -0.39493647      -0.50715541      -0.10815270 </v>
   <v>      -0.64546805      -0.76291411       0.76289834 </v>
   <v>       0.38329482      -0.56710757       0.65079486 </v>
   <v>      -0.22734143       1.13584670       0.19341727 </v>
   <v>       0.62338811      -0.01148193      -0.55694374 </v>
   <v>      -0.62961253       0.78083918      -0.40038952 </v>
   <v>       0.43183390      -0.35612643       0.29461766 </v>
   <v>      -0.44585615      -0.74543808       0.59459675 </v>
   <v>       0.77778693       0.52060322       0.61558196 </v>
   <v>      -0.31648929       0.50713655       0.79860368 </v>
   <v>       0.36683063      -0.30412430       0.05749056 </v>
   <v>      -0.58964889      -1.19492564      -0.34902885 </v>
   <v>      -1.53612113       0.47164731      -0.52458857 </v>
   <v>      -0.41160566      -0.52550976      -0.53928607 </v>
   <v>       0.84588192       0.46472387       0.00368484 </v>
   <v>       0.65563007      -0.00968072      -0.01387532 </v>
   <v>       0.79768306      -0.00084283      -0.05998269 </v>
   <v>       0.08099286       0.09954494       0.10150132 </v>
   <v>      -0.41402480       0.10317809       0.17904421 </v>
   <v>      -0.10922698      -0.35597415       0.12452072 </v>
   <v>       0.02055144       0.02389168      -0.09207344 </v>
   <v>       0.06180072      -0.19385367      -0.82984752 </v>
   <v>      -0.83409071       0.04063679       0.32004076 </v>
   <v>       0.36600083      -0.00597470       0.46710826 </v>
   <v>       0.08113063      -0.36183429      -0.45487031 </v>
   <v>      -0.16007671       0.06961275       0.73856208 </v>
   <v>      -0.33929653      -0.02506575       0.04947259 </v>
   <v>       0.30346852       0.00283588      -0.07863361 </v>
   <v>      -0.09417996       0.08139244       0.40074202 </v>
   <v>       0.57846059      -0.01635139       0.56376390 </v>
   <v>       0.46844235       0.81146481      -1.22393275 </v>
   <v>      -0.02750127       0.20986404      -0.63935662 </v>
   <v>       0.16202078      -0.09698643       0.07510085 </v>
   <v>       0.36768511      -0.17777036       0.36399196 </v>
   <v>      -0.06077005       0.02884528      -0.00413011 </v>
   <v>      -0.71305083       0.79616018      -1.06676052 </v>
   <v>      -0.10043476      -0.01656049      -0.00363201 </v>
   <v>      -1.53228598       0.52891351      -0.96262665 </v>
   <v>       0.31045490      -0.60267868       0.02214467 </v>
   <v>       1.72754279      -0.02934000       0.48435971 </v>
   <v>       0.05885092       0.72272241      -0.04171594 </v>
   <v>       0.56562689       0.01464189       0.02876561 </v>
   <v>      -0.61426033      -0.09153251      -0.49631473 </v>
   <v>       0.68488726      -0.85673397       0.74927438 </v>
   <v>       0.22371624       0.00608990       0.04093622 </v>
   <v>      -0.49997821       1.65524044       0.38465992 </v>
   <v>       1.23352566      -1.11544868       0.50667811 </v>
   <v>      -0.44752695       1.44408937      -0.26305384 </v>
   <v>      -0.62820992      -0.38837373       0.93281951 </v>
   <v>       0.30012179       0.56842430      -0.76447752 </v>
   <v>       0.19178052       0.99897162      -0.78559872 </v>
   <v>       0.13212034      -0.56003047      -0.10880801 </v>
   <v>      -0.18970598       0.03833731       0.38158405 </v>
   <v>      -0.61277763      -0.25289960       0.22264868 </v>
   <v>      -0.73213509      -0.82991219       0.52965453 </v>
   <v>       0.80869707      -0.26893879      -1.17878538 </v>
   <v>       0.41501312      -0.55933719      -1.60528171 </v>
   <v>      -0.60123537       0.64812200       0.67473794 </v>
   <v>      -1.25881756      -0.62610630      -0.22602655 </v>
   <v>       0.39641568      -1.37714617       1.35484108 </v>
   <v>      -0.01781290       1.31606000       0.75771014 </v>
  </varray>
  <varray name="stress" >
   <v>    -102.18334157       1.80635967      -1.34967839 </v>
   <v>       1.80636179    -117.80505259       1.59601787 </v>
   <v>      -1.34967793       1.59601725     -96.28405146 </v>
  </varray>
  <energy>
   <i name="e_fr_energy">   -663.38525053 </i>
   <i name="e_wo_entrp">   -663.27731515 </i>
   <i name="e_0_energy">     -0.21587076 </i>
  </energy>
  <time name="totalsc"> 1332.84 1357.80</time>
  <eigenvalues>
   <array>
    <dimension dim="1">band</dimension>
    <dimension dim="2">kpoint</dimension>
    <dimension dim="3">spin</dimension>
    <field>eigene</field>
    <field>occ</field>
    <set>
     <set comment="spin 1">
      <set comment="kpoint 1">
       <r>  -47.5201    1.0000 </r>
       <r>  -47.2736    1.0000 </r>
       <r>  -47.2541    1.0000 </r>
       <r>  -47.2513    1.0000 </r>
       <r>  -47.2388    1.0000 </r>
       <r>  -47.2060    1.0000 </r>
       <r>  -47.1632    1.0000 </r>
       <r>  -34.9911    1.0000 </r>
       <r>  -34.9444    1.0000 </r>
       <r>  -34.9346    1.0000 </r>
       <r>  -34.9218    1.0000 </r>
       <r>  -34.9133    1.0000 </r>
       <r>  -34.8743    1.0000 </r>
       <r>  -34.8685    1.0000 </r>
       <r>  -34.8529    1.0000 </r>
       <r>  -34.8517    1.0000 </r>
       <r>  -34.8428    1.0000 </r>
       <r>  -34.8275    1.0000 </r>
       <r>  -34.8166    1.0000 </r>
       <r>  -34.8117    1.0000 </r>
       <r>  -34.8080    1.0000 </r>
       <r>  -34.7926    1.0000 </r>
       <r>  -34.7871    1.0000 </r>
       <r>  -34.7665    1.0000 </r>
       <r>  -34.7534    1.0000 </r>
       <r>  -30.9435    1.0000 </r>
       <r>  -30.8776    1.0000 </r>
       <r>  -30.7852    1.0000 </r>
       <r>  -30.7580    1.0000 </r>
       <r>  -30.7179    1.0000 </r>
       <r>  -30.7057    1.0000 </r>
       <r>  -30.6866    1.0000 </r>
       <r>  -30.6470    1.0000 </r>
       <r>  -30.6318    1.0000 </r>
       <r>  -30.5998    1.0000 </r>
       <r>  -30.5433    1.0000 </r>
       <r>  -30.5209    1.0000 </r>
       <r>  -30.5171    1.0000 </r>
       <r>  -30.4727    1.0000 </r>
       <r>  -30.4537    1.0000 </r>
       <r>  -30.4301    1.0000 </r>
       <r>  -30.3958    1.0000 </r>
       <r>  -30.3768    1.0000 </r>
       <r>  -27.0737    1.0000 </r>
       <r>  -27.0501    1.0000 </r>
       <r>  -26.9952    1.0000 </r>
       <r>  -26.8253    1.0000 </r>
       <r>  -26.8171    1.0000 </r>
       <r>  -26.7762    1.0000 </r>
       <r>  -26.7639    1.0000 </r>
       <r>  -26.7334    1.0000 </r>
       <r>  -26.7299    1.0000 </r>
       <r>  -26.6817    1.0000 </r>
       <r>  -26.6809    1.0000 </r>
       <r>  -26.6287    1.0000 </r>
       <r>  -26.6066    1.0000 </r>
       <r>  -26.5687    1.0000 </r>
       <r>  -26.5191    1.0000 </r>
       <r>  -26.4436    1.0000 </r>
       <r>  -26.3979    1.0000 </r>
       <r>  -26.3883    1.0000 </r>
       <r>  -23.6452    1.0000 </r>
       <r>  -23.6387    1.0000 </r>
       <r>  -23.6018    1.0000 </r>
       <r>  -23.4955    1.0000 </r>
       <r>  -23.4365    1.0000 </r>
       <r>  -23.4320    1.0000 </r>
       <r>  -23.4247    1.0000 </r>
       <r>  -23.3935    1.0000 </r>
       <r>  -23.3874    1.0000 </r>
       <r>  -23.3695    1.0000 </r>
       <r>  -23.3569    1.0000 </r>
       <r>  -23.3529    1.0000 </r>
       <r>  -23.3411    1.0000 </r>
       <r>  -23.3301    1.0000 </r>
       <r>  -23.3281    1.0000 </r>
       <r>  -23.3259    1.0000 </r>
       <r>  -23.2967    1.0000 </r>
       <r>  -23.2848    1.0000 </r>
       <r>  -23.2370    1.0000 </r>
       <r>  -23.1955    1.0000 </r>
       <r>  -23.1475    1.0000 </r>
       <r>  -22.5984    1.0000 </r>
       <r>  -22.4649    1.0000 </r>
       <r>  -22.4380    1.0000 </r>
       <r>  -22.4036    1.0000 </r>
       <r>  -22.3863    1.0000 </r>
       <r>  -22.3551    1.0000 </r>
       <r>  -22.3193    1.0000 </r>
       <r>  -22.2905    1.0000 </r>
       <r>  -22.2717    1.0000 </r>
       <r>  -22.0081    1.0000 </r>
       <r>  -21.9977    1.0000 </r>
       <r>  -21.9790    1.0000 </r>
       <r>  -21.9724    1.0000 </r>
       <r>  -21.9562    1.0000 </r>
       <r>  -21.9551    1.0000 </r>
       <r>  -21.8043    1.0000 </r>
       <r>  -21.7627    1.0000 </r>
       <r>  -21.7438    1.0000 </r>
       <r>  -21.6801    1.0000 </r>
       <r>  -21.6072    1.0000 </r>
       <r>  -21.5896    1.0000 </r>
       <r>   -7.6047    1.0000 </r>
       <r>   -6.9654    1.0000 </r>
       <r>   -6.7081    1.0000 </r>
       <r>   -6.6415    1.0000 </r>
       <r>   -6.5051    1.0000 </r>
       <r>   -6.4758    1.0000 </r>
       <r>   -6.3784    1.0000 </r>
       <r>   -6.2089    1.0000 </r>
       <r>   -6.1582    1.0000 </r>
       <r>   -6.0771    1.0000 </r>
       <r>   -5.9951    1.0000 </r>
       <r>   -5.8207    1.0000 </r>
       <r>   -5.6788    1.0000 </r>
       <r>   -4.7986    1.0000 </r>
       <r>   -4.1916    1.0000 </r>
       <r>   -3.8303    1.0000 </r>
       <r>   -3.7077    1.0000 </r>
       <r>   -3.4373    1.0000 </r>
       <r>   -3.4019    1.0000 </r>
       <r>   -3.2377    1.0000 </r>
       <r>   -3.1259    1.0000 </r>
       <r>   -3.0672    1.0000 </r>
       <r>   -2.8564    1.0000 </r>
       <r>   -2.6580    1.0000 </r>
       <r>   -2.6016    1.0000 </r>
       <r>   -2.4824    1.0000 </r>
       <r>   -2.4177    1.0000 </r>
       <r>   -2.3380    1.0000 </r>
       <r>   -2.3098    1.0000 </r>
       <r>   -2.0291    1.0000 </r>
       <r>   -1.6510    1.0000 </r>
       <r>   -1.5721    1.0000 </r>
       <r>    0.4070    1.0000 </r>
       <r>    0.4398    1.0000 </r>
       <r>    0.4769    1.0000 </r>
       <r>    0.6068    1.0000 </r>
       <r>    1.4607    1.0000 </r>
       <r>    1.4864    1.0000 </r>
       <r>    1.5942    1.0000 </r>
       <r>    1.6323    1.0000 </r>
       <r>    1.6677    1.0000 </r>
       <r>    1.7519    1.0000 </r>
       <r>    1.7824    1.0000 </r>
       <r>    1.8891    1.0000 </r>
       <r>    1.9237    1.0000 </r>
       <r>    1.9981    1.0000 </r>
       <r>    2.0671    1.0000 </r>
       <r>    2.1734    1.0000 </r>
       <r>    2.5698    1.0000 </r>
       <r>    2.6455    1.0000 </r>
       <r>    2.6611    1.0000 </r>
       <r>    2.6824    1.0000 </r>
       <r>    2.7896    1.0000 </r>
       <r>    2.8227    1.0000 </r>
       <r>    2.8657    1.0000 </r>
       <r>    2.9747    1.0000 </r>
       <r>    3.0095    1.0000 </r>
       <r>    3.0423    1.0000 </r>
       <r>    3.0779    1.0000 </r>
       <r>    3.1115    1.0000 </r>
       <r>    3.1379    1.0000 </r>
       <r>    3.1694    1.0000 </r>
       <r>    3.1996    1.0000 </r>
       <r>    3.3014    1.0000 </r>
       <r>    3.3557    1.0000 </r>
       <r>    3.3593    1.0000 </r>
       <r>    3.3791    1.0000 </r>
       <r>    3.4414    1.0000 </r>
       <r>    3.4633    1.0000 </r>
       <r>    3.5115    1.0000 </r>
       <r>    3.5320    1.0000 </r>
       <r>    3.5465    1.0000 </r>
       <r>    3.5647    1.0000 </r>
       <r>    3.5885    1.0000 </r>
       <r>    3.6393    1.0000 </r>
       <r>    3.6696    1.0000 </r>
       <r>    3.6956    1.0000 </r>
       <r>    3.7080    1.0000 </r>
       <r>    3.7461    1.0000 </r>
       <r>    3.7896    1.0000 </r>
       <r>    3.8058    1.0000 </r>
       <r>    3.8247    1.0000 </r>
       <r>    3.8539    1.0000 </r>
       <r>    3.8969    1.0000 </r>
       <r>    3.9137    1.0000 </r>
       <r>    3.9201    1.0000 </r>
       <r>    3.9817    1.0000 </r>
       <r>    4.0049    1.0000 </r>
       <r>    4.0131    1.0000 </r>
       <r>    4.0658    1.0000 </r>
       <r>    4.0978    1.0000 </r>
       <r>    4.1093    1.0000 </r>
       <r>    4.1535    1.0000 </r>
       <r>    4.1924    1.0000 </r>
       <r>    4.1948    1.0000 </r>
       <r>    4.2442    1.0000 </r>
       <r>    4.3090    1.0000 </r>
       <r>    4.3137    1.0000 </r>
       <r>    4.3362    1.0000 </r>
       <r>    4.3726    1.0000 </r>
       <r>    4.4166    1.0000 </r>
       <r>    4.4573    1.0000 </r>
       <r>    4.4878    1.0000 </r>
       <r>    4.5627    1.0000 </r>
       <r>    4.5886    1.0000 </r>
       <r>    4.6268    1.0000 </r>
       <r>    4.7836    1.0000 </r>
       <r>    4.8080    1.0000 </r>
       <r>    4.9274    1.0000 </r>
       <r>    4.9812    1.0000 </r>
       <r>    5.3314    1.0000 </r>
       <r>    5.4994    1.0000 </r>
       <r>    5.5058    1.0000 </r>
       <r>    5.6682    1.0000 </r>
       <r>    5.7413    1.0000 </r>
       <r>    5.7522    1.0000 </r>
       <r>    5.8143    1.0000 </r>
       <r>    5.8511    1.0000 </r>
       <r>    5.9175    1.0000 </r>
       <r>    5.9791    1.0000 </r>
       <r>    6.0334    1.0000 </r>
       <r>    6.0709    1.0000 </r>
       <r>    6.0882    1.0000 </r>
       <r>    6.1395    1.0000 </r>
       <r>    6.1807    1.0000 </r>
       <r>    6.2414    1.0000 </r>
       <r>    6.2740    1.0000 </r>
       <r>    6.3590    1.0000 </r>
       <r>    6.4365    1.0000 </r>
       <r>    6.4583    1.0000 </r>
       <r>    6.5454    1.0000 </r>
       <r>    6.6159    1.0000 </r>
       <r>    6.7481    1.0000 </r>
       <r>    6.8322    1.0000 </r>
       <r>    7.2873    1.0000 </r>
       <r>    7.3497    1.0000 </r>
       <r>    7.3728    1.0000 </r>
       <r>    7.4403    1.0000 </r>
       <r>    7.5431    1.0000 </r>
       <r>    7.5856    1.0000 </r>
       <r>    8.0937    1.0000 </r>
       <r>    8.2444    1.0000 </r>
       <r>    8.2886    1.0000 </r>
       <r>    8.4226    1.0000 </r>
       <r>    8.4801    0.9999 </r>
       <r>    8.5123    0.9997 </r>
       <r>    8.6484    0.9300 </r>
       <r>    8.6746    0.8655 </r>
       <r>    8.6939    0.7973 </r>
       <r>    8.7576    0.4723 </r>
       <r>    8.8015    0.2452 </r>
       <r>    8.8453    0.0952 </r>
       <r>    8.8739    0.0434 </r>
       <r>    8.8874    0.0284 </r>
       <r>    8.9727    0.0009 </r>
       <r>    8.9902    0.0004 </r>
       <r>    9.0103    0.0001 </r>
       <r>    9.0609    0.0000 </r>
       <r>    9.0997    0.0000 </r>
       <r>    9.1180    0.0000 </r>
       <r>    9.2183    0.0000 </r>
       <r>    9.2252    0.0000 </r>
       <r>    9.2677    0.0000 </r>
       <r>    9.3018    0.0000 </r>
       <r>    9.3899    0.0000 </r>
       <r>    9.3999    0.0000 </r>
       <r>    9.4562    0.0000 </r>
       <r>    9.5269    0.0000 </r>
       <r>    9.5606    0.0000 </r>
       <r>    9.6086    0.0000 </r>
       <r>    9.6467    0.0000 </r>
       <r>    9.6700    0.0000 </r>
       <r>    9.6997    0.0000 </r>
       <r>    9.7355    0.0000 </r>
       <r>    9.7659    0.0000 </r>
       <r>    9.7783    0.0000 </r>
       <r>    9.8416    0.0000 </r>
       <r>    9.8713    0.0000 </r>
       <r>    9.9460    0.0000 </r>
       <r>    9.9612    0.0000 </r>
       <r>    9.9761    0.0000 </r>
       <r>   10.0197    0.0000 </r>
       <r>   10.1019    0.0000 </r>
       <r>   10.1274    0.0000 </r>
       <r>   10.1629    0.0000 </r>
       <r>   10.1887    0.0000 </r>
       <r>   10.2443    0.0000 </r>
       <r>   10.2834    0.0000 </r>
       <r>   10.3587    0.0000 </r>
       <r>   10.4176    0.0000 </r>
       <r>   10.4773    0.0000 </r>
       <r>   10.5001    0.0000 </r>
       <r>   10.5135    0.0000 </r>
       <r>   10.6274    0.0000 </r>
       <r>   10.6388    0.0000 </r>
       <r>   10.7047    0.0000 </r>
       <r>   10.7634    0.0000 </r>
       <r>   10.8255    0.0000 </r>
       <r>   10.8533    0.0000 </r>
       <r>   10.8778    0.0000 </r>
       <r>   10.9423    0.0000 </r>
       <r>   10.9913    0.0000 </r>
       <r>   11.0367    0.0000 </r>
       <r>   11.0741    0.0000 </r>
       <r>   11.1274    0.0000 </r>
       <r>   11.1965    0.0000 </r>
       <r>   11.2779    0.0000 </r>
       <r>   11.3494    0.0000 </r>
       <r>   11.5355    0.0000 </r>
      </set>
      <set comment="kpoint 2">
       <r>  -47.5201    1.0000 </r>
       <r>  -47.2736    1.0000 </r>
       <r>  -47.2541    1.0000 </r>
       <r>  -47.2513    1.0000 </r>
       <r>  -47.2388    1.0000 </r>
       <r>  -47.2060    1.0000 </r>
       <r>  -47.1632    1.0000 </r>
       <r>  -34.9910    1.0000 </r>
       <r>  -34.9444    1.0000 </r>
       <r>  -34.9346    1.0000 </r>
       <r>  -34.9218    1.0000 </r>
       <r>  -34.9133    1.0000 </r>
       <r>  -34.8743    1.0000 </r>
       <r>  -34.8685    1.0000 </r>
       <r>  -34.8529    1.0000 </r>
       <r>  -34.8517    1.0000 </r>
       <r>  -34.8428    1.0000 </r>
       <r>  -34.8275    1.0000 </r>
       <r>  -34.8166    1.0000 </r>
       <r>  -34.8116    1.0000 </r>
       <r>  -34.8080    1.0000 </r>
       <r>  -34.7926    1.0000 </r>
       <r>  -34.7871    1.0000 </r>
       <r>  -34.7665    1.0000 </r>
       <r>  -34.7534    1.0000 </r>
       <r>  -30.9435    1.0000 </r>
       <r>  -30.8776    1.0000 </r>
       <r>  -30.7852    1.0000 </r>
       <r>  -30.7579    1.0000 </r>
       <r>  -30.7179    1.0000 </r>
       <r>  -30.7058    1.0000 </r>
       <r>  -30.6865    1.0000 </r>
       <r>  -30.6470    1.0000 </r>
       <r>  -30.6317    1.0000 </r>
       <r>  -30.6003    1.0000 </r>
       <r>  -30.5431    1.0000 </r>
       <r>  -30.5209    1.0000 </r>
       <r>  -30.5171    1.0000 </r>
       <r>  -30.4727    1.0000 </r>
       <r>  -30.4537    1.0000 </r>
       <r>  -30.4301    1.0000 </r>
       <r>  -30.3958    1.0000 </r>
       <r>  -30.3767    1.0000 </r>
       <r>  -27.0737    1.0000 </r>
       <r>  -27.0501    1.0000 </r>
       <r>  -26.9952    1.0000 </r>
       <r>  -26.8253    1.0000 </r>
       <r>  -26.8171    1.0000 </r>
       <r>  -26.7762    1.0000 </r>
       <r>  -26.7639    1.0000 </r>
       <r>  -26.7334    1.0000 </r>
       <r>  -26.7299    1.0000 </r>
       <r>  -26.6816    1.0000 </r>
       <r>  -26.6809    1.0000 </r>
       <r>  -26.6286    1.0000 </r>
       <r>  -26.6067    1.0000 </r>
       <r>  -26.5687    1.0000 </r>
       <r>  -26.5192    1.0000 </r>
       <r>  -26.4436    1.0000 </r>
       <r>  -26.3978    1.0000 </r>
       <r>  -26.3883    1.0000 </r>
       <r>  -23.6452    1.0000 </r>
       <r>  -23.6384    1.0000 </r>
       <r>  -23.6017    1.0000 </r>
       <r>  -23.4969    1.0000 </r>
       <r>  -23.4366    1.0000 </r>
       <r>  -23.4315    1.0000 </r>
       <r>  -23.4246    1.0000 </r>
       <r>  -23.3934    1.0000 </r>
       <r>  -23.3873    1.0000 </r>
       <r>  -23.3699    1.0000 </r>
       <r>  -23.3569    1.0000 </r>
       <r>  -23.3530    1.0000 </r>
       <r>  -23.3401    1.0000 </r>
       <r>  -23.3304    1.0000 </r>
       <r>  -23.3280    1.0000 </r>
       <r>  -23.3266    1.0000 </r>
       <r>  -23.2965    1.0000 </r>
       <r>  -23.2838    1.0000 </r>
       <r>  -23.2372    1.0000 </r>
       <r>  -23.1953    1.0000 </r>
       <r>  -23.1487    1.0000 </r>
       <r>  -22.5992    1.0000 </r>
       <r>  -22.4650    1.0000 </r>
       <r>  -22.4375    1.0000 </r>
       <r>  -22.4027    1.0000 </r>
       <r>  -22.3862    1.0000 </r>
       <r>  -22.3548    1.0000 </r>
       <r>  -22.3192    1.0000 </r>
       <r>  -22.2908    1.0000 </r>
       <r>  -22.2699    1.0000 </r>
       <r>  -22.0093    1.0000 </r>
       <r>  -21.9977    1.0000 </r>
       <r>  -21.9793    1.0000 </r>
       <r>  -21.9725    1.0000 </r>
       <r>  -21.9563    1.0000 </r>
       <r>  -21.9553    1.0000 </r>
       <r>  -21.8046    1.0000 </r>
       <r>  -21.7628    1.0000 </r>
       <r>  -21.7438    1.0000 </r>
       <r>  -21.6802    1.0000 </r>
       <r>  -21.6072    1.0000 </r>
       <r>  -21.5896    1.0000 </r>
       <r>   -7.4998    1.0000 </r>
       <r>   -6.9062    1.0000 </r>
       <r>   -6.8422    1.0000 </r>
       <r>   -6.6330    1.0000 </r>
       <r>   -6.5014    1.0000 </r>
       <r>   -6.4445    1.0000 </r>
       <r>   -6.4134    1.0000 </r>
       <r>   -6.2710    1.0000 </r>
       <r>   -6.1293    1.0000 </r>
       <r>   -6.0858    1.0000 </r>
       <r>   -5.9561    1.0000 </r>
       <r>   -5.8014    1.0000 </r>
       <r>   -5.6816    1.0000 </r>
       <r>   -4.7371    1.0000 </r>
       <r>   -4.2267    1.0000 </r>
       <r>   -3.8734    1.0000 </r>
       <r>   -3.6929    1.0000 </r>
       <r>   -3.4789    1.0000 </r>
       <r>   -3.3603    1.0000 </r>
       <r>   -3.2682    1.0000 </r>
       <r>   -3.1700    1.0000 </r>
       <r>   -3.0498    1.0000 </r>
       <r>   -2.9068    1.0000 </r>
       <r>   -2.7530    1.0000 </r>
       <r>   -2.6664    1.0000 </r>
       <r>   -2.5294    1.0000 </r>
       <r>   -2.4872    1.0000 </r>
       <r>   -2.4196    1.0000 </r>
       <r>   -2.3255    1.0000 </r>
       <r>   -2.1271    1.0000 </r>
       <r>   -1.7530    1.0000 </r>
       <r>   -1.7084    1.0000 </r>
       <r>    0.6504    1.0000 </r>
       <r>    0.6946    1.0000 </r>
       <r>    0.7909    1.0000 </r>
       <r>    0.9199    1.0000 </r>
       <r>    1.4562    1.0000 </r>
       <r>    1.5143    1.0000 </r>
       <r>    1.5864    1.0000 </r>
       <r>    1.6025    1.0000 </r>
       <r>    1.7083    1.0000 </r>
       <r>    1.8591    1.0000 </r>
       <r>    1.8962    1.0000 </r>
       <r>    2.0171    1.0000 </r>
       <r>    2.1359    1.0000 </r>
       <r>    2.1408    1.0000 </r>
       <r>    2.1765    1.0000 </r>
       <r>    2.3530    1.0000 </r>
       <r>    2.5469    1.0000 </r>
       <r>    2.5924    1.0000 </r>
       <r>    2.6406    1.0000 </r>
       <r>    2.6869    1.0000 </r>
       <r>    2.7552    1.0000 </r>
       <r>    2.7990    1.0000 </r>
       <r>    2.8664    1.0000 </r>
       <r>    2.9124    1.0000 </r>
       <r>    2.9339    1.0000 </r>
       <r>    3.0341    1.0000 </r>
       <r>    3.0606    1.0000 </r>
       <r>    3.1269    1.0000 </r>
       <r>    3.1580    1.0000 </r>
       <r>    3.2050    1.0000 </r>
       <r>    3.2436    1.0000 </r>
       <r>    3.2936    1.0000 </r>
       <r>    3.3281    1.0000 </r>
       <r>    3.3621    1.0000 </r>
       <r>    3.3724    1.0000 </r>
       <r>    3.4082    1.0000 </r>
       <r>    3.4652    1.0000 </r>
       <r>    3.5067    1.0000 </r>
       <r>    3.5312    1.0000 </r>
       <r>    3.5568    1.0000 </r>
       <r>    3.5837    1.0000 </r>
       <r>    3.6330    1.0000 </r>
       <r>    3.6669    1.0000 </r>
       <r>    3.6907    1.0000 </r>
       <r>    3.7198    1.0000 </r>
       <r>    3.7693    1.0000 </r>
       <r>    3.8000    1.0000 </r>
       <r>    3.8199    1.0000 </r>
       <r>    3.8373    1.0000 </r>
       <r>    3.8586    1.0000 </r>
       <r>    3.9113    1.0000 </r>
       <r>    3.9306    1.0000 </r>
       <r>    3.9538    1.0000 </r>
       <r>    3.9675    1.0000 </r>
       <r>    4.0195    1.0000 </r>
       <r>    4.0349    1.0000 </r>
       <r>    4.0771    1.0000 </r>
       <r>    4.1279    1.0000 </r>
       <r>    4.1340    1.0000 </r>
       <r>    4.2173    1.0000 </r>
       <r>    4.2460    1.0000 </r>
       <r>    4.2897    1.0000 </r>
       <r>    4.3090    1.0000 </r>
       <r>    4.3463    1.0000 </r>
       <r>    4.3758    1.0000 </r>
       <r>    4.4354    1.0000 </r>
       <r>    4.4504    1.0000 </r>
       <r>    4.4572    1.0000 </r>
       <r>    4.5218    1.0000 </r>
       <r>    4.5701    1.0000 </r>
       <r>    4.5878    1.0000 </r>
       <r>    4.6349    1.0000 </r>
       <r>    4.6558    1.0000 </r>
       <r>    4.7242    1.0000 </r>
       <r>    4.7601    1.0000 </r>
       <r>    4.8046    1.0000 </r>
       <r>    4.8680    1.0000 </r>
       <r>    4.9041    1.0000 </r>
       <r>    4.9596    1.0000 </r>
       <r>    5.0422    1.0000 </r>
       <r>    5.1120    1.0000 </r>
       <r>    5.1605    1.0000 </r>
       <r>    5.2765    1.0000 </r>
       <r>    5.3515    1.0000 </r>
       <r>    5.3994    1.0000 </r>
       <r>    5.4885    1.0000 </r>
       <r>    5.5906    1.0000 </r>
       <r>    5.6502    1.0000 </r>
       <r>    5.6796    1.0000 </r>
       <r>    5.7653    1.0000 </r>
       <r>    5.8764    1.0000 </r>
       <r>    5.9535    1.0000 </r>
       <r>    6.0385    1.0000 </r>
       <r>    6.0783    1.0000 </r>
       <r>    6.3325    1.0000 </r>
       <r>    6.4386    1.0000 </r>
       <r>    6.5225    1.0000 </r>
       <r>    6.6903    1.0000 </r>
       <r>    6.7133    1.0000 </r>
       <r>    6.8614    1.0000 </r>
       <r>    6.9453    1.0000 </r>
       <r>    7.0945    1.0000 </r>
       <r>    7.2185    1.0000 </r>
       <r>    7.3059    1.0000 </r>
       <r>    7.3271    1.0000 </r>
       <r>    7.4105    1.0000 </r>
       <r>    7.8057    1.0000 </r>
       <r>    7.8696    1.0000 </r>
       <r>    8.0852    1.0000 </r>
       <r>    8.0962    1.0000 </r>
       <r>    8.1954    1.0000 </r>
       <r>    8.3291    1.0000 </r>
       <r>    8.3765    1.0000 </r>
       <r>    8.4586    1.0000 </r>
       <r>    8.5190    0.9995 </r>
       <r>    8.5676    0.9956 </r>
       <r>    8.6145    0.9747 </r>
       <r>    8.7112    0.7214 </r>
       <r>    8.7794    0.3532 </r>
       <r>    8.7985    0.2588 </r>
       <r>    8.8472    0.0908 </r>
       <r>    8.8614    0.0622 </r>
       <r>    8.9044    0.0160 </r>
       <r>    8.9501    0.0026 </r>
       <r>    9.0262    0.0001 </r>
       <r>    9.0528    0.0000 </r>
       <r>    9.1030    0.0000 </r>
       <r>    9.1300    0.0000 </r>
       <r>    9.1779    0.0000 </r>
       <r>    9.2317    0.0000 </r>
       <r>    9.2575    0.0000 </r>
       <r>    9.3163    0.0000 </r>
       <r>    9.3251    0.0000 </r>
       <r>    9.3564    0.0000 </r>
       <r>    9.3895    0.0000 </r>
       <r>    9.4201    0.0000 </r>
       <r>    9.4987    0.0000 </r>
       <r>    9.5196    0.0000 </r>
       <r>    9.5769    0.0000 </r>
       <r>    9.5973    0.0000 </r>
       <r>    9.6405    0.0000 </r>
       <r>    9.6605    0.0000 </r>
       <r>    9.7165    0.0000 </r>
       <r>    9.7581    0.0000 </r>
       <r>    9.8118    0.0000 </r>
       <r>    9.8280    0.0000 </r>
       <r>    9.8710    0.0000 </r>
       <r>    9.9134    0.0000 </r>
       <r>    9.9443    0.0000 </r>
       <r>    9.9746    0.0000 </r>
       <r>   10.0621    0.0000 </r>
       <r>   10.0965    0.0000 </r>
       <r>   10.1344    0.0000 </r>
       <r>   10.1518    0.0000 </r>
       <r>   10.2091    0.0000 </r>
       <r>   10.2708    0.0000 </r>
       <r>   10.3104    0.0000 </r>
       <r>   10.3434    0.0000 </r>
       <r>   10.4102    0.0000 </r>
       <r>   10.4592    0.0000 </r>
       <r>   10.5035    0.0000 </r>
       <r>   10.5361    0.0000 </r>
       <r>   10.5800    0.0000 </r>
       <r>   10.6168    0.0000 </r>
       <r>   10.6623    0.0000 </r>
       <r>   10.7221    0.0000 </r>
       <r>   10.7717    0.0000 </r>
       <r>   10.8273    0.0000 </r>
       <r>   10.8784    0.0000 </r>
       <r>   10.9683    0.0000 </r>
       <r>   11.0642    0.0000 </r>
       <r>   11.0728    0.0000 </r>
       <r>   11.1179    0.0000 </r>
       <r>   11.1911    0.0000 </r>
       <r>   11.2646    0.0000 </r>
       <r>   11.3765    0.0000 </r>
       <r>   11.4824    0.0000 </r>
      </set>
      <set comment="kpoint 3">
       <r>  -47.5201    1.0000 </r>
       <r>  -47.2736    1.0000 </r>
       <r>  -47.2540    1.0000 </r>
       <r>  -47.2514    1.0000 </r>
       <r>  -47.2388    1.0000 </r>
       <r>  -47.2060    1.0000 </r>
       <r>  -47.1632    1.0000 </r>
       <r>  -34.9911    1.0000 </r>
       <r>  -34.9444    1.0000 </r>
       <r>  -34.9346    1.0000 </r>
       <r>  -34.9218    1.0000 </r>
       <r>  -34.9133    1.0000 </r>
       <r>  -34.8743    1.0000 </r>
       <r>  -34.8685    1.0000 </r>
       <r>  -34.8529    1.0000 </r>
       <r>  -34.8517    1.0000 </r>
       <r>  -34.8428    1.0000 </r>
       <r>  -34.8275    1.0000 </r>
       <r>  -34.8166    1.0000 </r>
       <r>  -34.8117    1.0000 </r>
       <r>  -34.8080    1.0000 </r>
       <r>  -34.7925    1.0000 </r>
       <r>  -34.7871    1.0000 </r>
       <r>  -34.7665    1.0000 </r>
       <r>  -34.7534    1.0000 </r>
       <r>  -30.9435    1.0000 </r>
       <r>  -30.8776    1.0000 </r>
       <r>  -30.7852    1.0000 </r>
       <r>  -30.7580    1.0000 </r>
       <r>  -30.7179    1.0000 </r>
       <r>  -30.7058    1.0000 </r>
       <r>  -30.6866    1.0000 </r>
       <r>  -30.6469    1.0000 </r>
       <r>  -30.6319    1.0000 </r>
       <r>  -30.5999    1.0000 </r>
       <r>  -30.5432    1.0000 </r>
       <r>  -30.5209    1.0000 </r>
       <r>  -30.5171    1.0000 </r>
       <r>  -30.4727    1.0000 </r>
       <r>  -30.4536    1.0000 </r>
       <r>  -30.4300    1.0000 </r>
       <r>  -30.3958    1.0000 </r>
       <r>  -30.3768    1.0000 </r>
       <r>  -27.0737    1.0000 </r>
       <r>  -27.0501    1.0000 </r>
       <r>  -26.9952    1.0000 </r>
       <r>  -26.8253    1.0000 </r>
       <r>  -26.8171    1.0000 </r>
       <r>  -26.7760    1.0000 </r>
       <r>  -26.7639    1.0000 </r>
       <r>  -26.7333    1.0000 </r>
       <r>  -26.7299    1.0000 </r>
       <r>  -26.6821    1.0000 </r>
       <r>  -26.6805    1.0000 </r>
       <r>  -26.6288    1.0000 </r>
       <r>  -26.6070    1.0000 </r>
       <r>  -26.5687    1.0000 </r>
       <r>  -26.5191    1.0000 </r>
       <r>  -26.4434    1.0000 </r>
       <r>  -26.3978    1.0000 </r>
       <r>  -26.3884    1.0000 </r>
       <r>  -23.6451    1.0000 </r>
       <r>  -23.6385    1.0000 </r>
       <r>  -23.6015    1.0000 </r>
       <r>  -23.4952    1.0000 </r>
       <r>  -23.4359    1.0000 </r>
       <r>  -23.4320    1.0000 </r>
       <r>  -23.4227    1.0000 </r>
       <r>  -23.3920    1.0000 </r>
       <r>  -23.3894    1.0000 </r>
       <r>  -23.3698    1.0000 </r>
       <r>  -23.3572    1.0000 </r>
       <r>  -23.3550    1.0000 </r>
       <r>  -23.3412    1.0000 </r>
       <r>  -23.3316    1.0000 </r>
       <r>  -23.3276    1.0000 </r>
       <r>  -23.3259    1.0000 </r>
       <r>  -23.2968    1.0000 </r>
       <r>  -23.2848    1.0000 </r>
       <r>  -23.2361    1.0000 </r>
       <r>  -23.1962    1.0000 </r>
       <r>  -23.1473    1.0000 </r>
       <r>  -22.5981    1.0000 </r>
       <r>  -22.4646    1.0000 </r>
       <r>  -22.4379    1.0000 </r>
       <r>  -22.4033    1.0000 </r>
       <r>  -22.3863    1.0000 </r>
       <r>  -22.3551    1.0000 </r>
       <r>  -22.3193    1.0000 </r>
       <r>  -22.2908    1.0000 </r>
       <r>  -22.2715    1.0000 </r>
       <r>  -22.0079    1.0000 </r>
       <r>  -21.9975    1.0000 </r>
       <r>  -21.9788    1.0000 </r>
       <r>  -21.9723    1.0000 </r>
       <r>  -21.9561    1.0000 </r>
       <r>  -21.9549    1.0000 </r>
       <r>  -21.8046    1.0000 </r>
       <r>  -21.7634    1.0000 </r>
[...]
      </set>
     </set>
    </set>
   </array>
  </eigenvalues>
  <separator name="orbital magnetization" >
   <v name="MAGDIPOLOUT">      0.00000000      0.00000000      0.00000000</v>
  </separator>
  <dos>
   <i name="efermi">      8.75273133 </i>
   <total>
    <array>
     <dimension dim="1">gridpoints</dimension>
     <dimension dim="2">spin</dimension>
     <field>energy</field>
     <field>total</field>
     <field>integrated</field>
     <set>
      <set comment="spin 1">
       <r>   -50.4931     0.0000     0.0000 </r>
       <r>   -50.2751     0.0000     0.0000 </r>
       <r>   -50.0571     0.0000     0.0000 </r>
       <r>   -49.8390     0.0000     0.0000 </r>
       <r>   -49.6210     0.0000     0.0000 </r>
       <r>   -49.4030     0.0000     0.0000 </r>
       <r>   -49.1850     0.0000     0.0000 </r>
       <r>   -48.9669     0.0000     0.0000 </r>
       <r>   -48.7489     0.0000     0.0000 </r>
       <r>   -48.5309     0.0000     0.0000 </r>
       <r>   -48.3129     0.0000     0.0000 </r>
       <r>   -48.0949     0.0000     0.0000 </r>
       <r>   -47.8768     0.0000     0.0000 </r>
       <r>   -47.6588     0.2282     0.0498 </r>
       <r>   -47.4408     7.9214     1.7768 </r>
       <r>   -47.2228    31.1793     8.5745 </r>
       <r>   -47.0048    24.7406    13.9685 </r>
       <r>   -46.7867     0.1444    14.0000 </r>
       <r>   -46.5687     0.0000    14.0000 </r>
       <r>   -46.3507     0.0000    14.0000 </r>
       <r>   -46.1327     0.0000    14.0000 </r>
       <r>   -45.9147     0.0000    14.0000 </r>
       <r>   -45.6966     0.0000    14.0000 </r>
       <r>   -45.4786     0.0000    14.0000 </r>
       <r>   -45.2606     0.0000    14.0000 </r>
       <r>   -45.0426     0.0000    14.0000 </r>
       <r>   -44.8245     0.0000    14.0000 </r>
       <r>   -44.6065     0.0000    14.0000 </r>
       <r>   -44.3885     0.0000    14.0000 </r>
       <r>   -44.1705     0.0000    14.0000 </r>
       <r>   -43.9525     0.0000    14.0000 </r>
       <r>   -43.7344     0.0000    14.0000 </r>
       <r>   -43.5164     0.0000    14.0000 </r>
       <r>   -43.2984     0.0000    14.0000 </r>
       <r>   -43.0804     0.0000    14.0000 </r>
       <r>   -42.8624     0.0000    14.0000 </r>
       <r>   -42.6443     0.0000    14.0000 </r>
       <r>   -42.4263     0.0000    14.0000 </r>
       <r>   -42.2083     0.0000    14.0000 </r>
       <r>   -41.9903     0.0000    14.0000 </r>
       <r>   -41.7723     0.0000    14.0000 </r>
       <r>   -41.5542     0.0000    14.0000 </r>
       <r>   -41.3362     0.0000    14.0000 </r>
       <r>   -41.1182     0.0000    14.0000 </r>
       <r>   -40.9002     0.0000    14.0000 </r>
       <r>   -40.6821     0.0000    14.0000 </r>
       <r>   -40.4641     0.0000    14.0000 </r>
       <r>   -40.2461     0.0000    14.0000 </r>
       <r>   -40.0281     0.0000    14.0000 </r>
       <r>   -39.8101     0.0000    14.0000 </r>
       <r>   -39.5920     0.0000    14.0000 </r>
       <r>   -39.3740     0.0000    14.0000 </r>
       <r>   -39.1560     0.0000    14.0000 </r>
       <r>   -38.9380     0.0000    14.0000 </r>
       <r>   -38.7200     0.0000    14.0000 </r>
       <r>   -38.5019     0.0000    14.0000 </r>
       <r>   -38.2839     0.0000    14.0000 </r>
       <r>   -38.0659     0.0000    14.0000 </r>
       <r>   -37.8479     0.0000    14.0000 </r>
       <r>   -37.6299     0.0000    14.0000 </r>
       <r>   -37.4118     0.0000    14.0000 </r>
       <r>   -37.1938     0.0000    14.0000 </r>
       <r>   -36.9758     0.0000    14.0000 </r>
       <r>   -36.7578     0.0000    14.0000 </r>
       <r>   -36.5398     0.0000    14.0000 </r>
       <r>   -36.3217     0.0000    14.0000 </r>
       <r>   -36.1037     0.0000    14.0000 </r>
       <r>   -35.8857     0.0000    14.0000 </r>
       <r>   -35.6677     0.0000    14.0000 </r>
       <r>   -35.4496     0.0000    14.0000 </r>
       <r>   -35.2316     0.0035    14.0008 </r>
       <r>   -35.0136     8.5577    15.8665 </r>
       <r>   -34.7956   109.8896    39.8248 </r>
       <r>   -34.5776    46.5358    49.9705 </r>
       <r>   -34.3595     0.1352    50.0000 </r>
       <r>   -34.1415     0.0000    50.0000 </r>
       <r>   -33.9235     0.0000    50.0000 </r>
       <r>   -33.7055     0.0000    50.0000 </r>
       <r>   -33.4875     0.0000    50.0000 </r>
       <r>   -33.2694     0.0000    50.0000 </r>
       <r>   -33.0514     0.0000    50.0000 </r>
       <r>   -32.8334     0.0000    50.0000 </r>
       <r>   -32.6154     0.0000    50.0000 </r>
       <r>   -32.3974     0.0000    50.0000 </r>
       <r>   -32.1793     0.0000    50.0000 </r>
       <r>   -31.9613     0.0000    50.0000 </r>
       <r>   -31.7433     0.0000    50.0000 </r>
       <r>   -31.5253     0.0000    50.0000 </r>
       <r>   -31.3072     0.0000    50.0000 </r>
       <r>   -31.0892     0.1921    50.0419 </r>
       <r>   -30.8712    14.2976    53.1590 </r>
       <r>   -30.6532    53.1333    64.7432 </r>
       <r>   -30.4352    69.5758    79.9122 </r>
       <r>   -30.2171    27.7428    85.9607 </r>
       <r>   -29.9991     0.1802    86.0000 </r>
       <r>   -29.7811     0.0000    86.0000 </r>
       <r>   -29.5631     0.0000    86.0000 </r>
       <r>   -29.3451     0.0000    86.0000 </r>
       <r>   -29.1270     0.0000    86.0000 </r>
       <r>   -28.9090     0.0000    86.0000 </r>
       <r>   -28.6910     0.0000    86.0000 </r>
       <r>   -28.4730     0.0000    86.0000 </r>
       <r>   -28.2550     0.0000    86.0000 </r>
       <r>   -28.0369     0.0000    86.0000 </r>
       <r>   -27.8189     0.0000    86.0000 </r>
       <r>   -27.6009     0.0000    86.0000 </r>
       <r>   -27.3829     0.0001    86.0000 </r>
       <r>   -27.1648     1.4595    86.3182 </r>
       <r>   -26.9468    23.6265    91.4693 </r>
       <r>   -26.7288    47.5179   101.8292 </r>
       <r>   -26.5108    60.0001   114.9105 </r>
       <r>   -26.2928    30.9201   121.6517 </r>
       <r>   -26.0747     1.5975   122.0000 </r>
       <r>   -25.8567     0.0001   122.0000 </r>
       <r>   -25.6387     0.0000   122.0000 </r>
       <r>   -25.4207     0.0000   122.0000 </r>
       <r>   -25.2027     0.0000   122.0000 </r>
       <r>   -24.9846     0.0000   122.0000 </r>
       <r>   -24.7666     0.0000   122.0000 </r>
       <r>   -24.5486     0.0000   122.0000 </r>
       <r>   -24.3306     0.0000   122.0000 </r>
       <r>   -24.1126     0.0000   122.0000 </r>
       <r>   -23.8945     0.0034   122.0007 </r>
       <r>   -23.6765     7.1065   123.5501 </r>
       <r>   -23.4585    42.9871   132.9222 </r>
       <r>   -23.2405   112.9482   157.5473 </r>
       <r>   -23.0225    29.1692   163.9068 </r>
       <r>   -22.8044     0.4443   164.0037 </r>
       <r>   -22.5864     5.8356   165.2759 </r>
       <r>   -22.3684    39.3581   173.8568 </r>
       <r>   -22.1504    37.1343   181.9529 </r>
       <r>   -21.9323    41.0361   190.8996 </r>
       <r>   -21.7143    39.2980   199.4674 </r>
       <r>   -21.4963    28.5286   205.6872 </r>
       <r>   -21.2783     1.4345   206.0000 </r>
       <r>   -21.0603     0.0001   206.0000 </r>
       <r>   -20.8422     0.0000   206.0000 </r>
       <r>   -20.6242     0.0000   206.0000 </r>
       <r>   -20.4062     0.0000   206.0000 </r>
       <r>   -20.1882     0.0000   206.0000 </r>
       <r>   -19.9702     0.0000   206.0000 </r>
       <r>   -19.7521     0.0000   206.0000 </r>
       <r>   -19.5341     0.0000   206.0000 </r>
       <r>   -19.3161     0.0000   206.0000 </r>
       <r>   -19.0981     0.0000   206.0000 </r>
       <r>   -18.8801     0.0000   206.0000 </r>
       <r>   -18.6620     0.0000   206.0000 </r>
       <r>   -18.4440     0.0000   206.0000 </r>
       <r>   -18.2260     0.0000   206.0000 </r>
       <r>   -18.0080     0.0000   206.0000 </r>
       <r>   -17.7899     0.0000   206.0000 </r>
       <r>   -17.5719     0.0000   206.0000 </r>
       <r>   -17.3539     0.0000   206.0000 </r>
       <r>   -17.1359     0.0000   206.0000 </r>
       <r>   -16.9179     0.0000   206.0000 </r>
       <r>   -16.6998     0.0000   206.0000 </r>
       <r>   -16.4818     0.0000   206.0000 </r>
       <r>   -16.2638     0.0000   206.0000 </r>
       <r>   -16.0458     0.0000   206.0000 </r>
       <r>   -15.8278     0.0000   206.0000 </r>
       <r>   -15.6097     0.0000   206.0000 </r>
       <r>   -15.3917     0.0000   206.0000 </r>
       <r>   -15.1737     0.0000   206.0000 </r>
       <r>   -14.9557     0.0000   206.0000 </r>
       <r>   -14.7377     0.0000   206.0000 </r>
       <r>   -14.5196     0.0000   206.0000 </r>
       <r>   -14.3016     0.0000   206.0000 </r>
       <r>   -14.0836     0.0000   206.0000 </r>
       <r>   -13.8656     0.0000   206.0000 </r>
       <r>   -13.6475     0.0000   206.0000 </r>
       <r>   -13.4295     0.0000   206.0000 </r>
       <r>   -13.2115     0.0000   206.0000 </r>
       <r>   -12.9935     0.0000   206.0000 </r>
       <r>   -12.7755     0.0000   206.0000 </r>
       <r>   -12.5574     0.0000   206.0000 </r>
       <r>   -12.3394     0.0000   206.0000 </r>
       <r>   -12.1214     0.0000   206.0000 </r>
       <r>   -11.9034     0.0000   206.0000 </r>
       <r>   -11.6854     0.0000   206.0000 </r>
       <r>   -11.4673     0.0000   206.0000 </r>
       <r>   -11.2493     0.0000   206.0000 </r>
       <r>   -11.0313     0.0000   206.0000 </r>
       <r>   -10.8133     0.0000   206.0000 </r>
       <r>   -10.5953     0.0000   206.0000 </r>
       <r>   -10.3772     0.0000   206.0000 </r>
       <r>   -10.1592     0.0000   206.0000 </r>
       <r>    -9.9412     0.0000   206.0000 </r>
       <r>    -9.7232     0.0000   206.0000 </r>
       <r>    -9.5052     0.0000   206.0000 </r>
       <r>    -9.2871     0.0000   206.0000 </r>
       <r>    -9.0691     0.0000   206.0000 </r>
       <r>    -8.8511     0.0000   206.0000 </r>
       <r>    -8.6331     0.0000   206.0000 </r>
       <r>    -8.4150     0.0000   206.0000 </r>
       <r>    -8.1970     0.0000   206.0000 </r>
       <r>    -7.9790     0.0000   206.0000 </r>
       <r>    -7.7610     0.0068   206.0015 </r>
       <r>    -7.5430     1.3567   206.2973 </r>
       <r>    -7.3249     6.2690   207.6640 </r>
       <r>    -7.1069     1.7853   208.0533 </r>
       <r>    -6.8889     7.5950   209.7091 </r>
       <r>    -6.6709    12.6538   212.4679 </r>
       <r>    -6.4529    22.1871   217.3052 </r>
       <r>    -6.2348    18.7394   221.3908 </r>
       <r>    -6.0168    21.3867   226.0535 </r>
       <r>    -5.7988    14.3307   229.1779 </r>
       <r>    -5.5808    11.9010   231.7726 </r>
       <r>    -5.3628     1.0431   232.0000 </r>
       <r>    -5.1447     0.0001   232.0000 </r>
       <r>    -4.9267     0.2962   232.0646 </r>
       <r>    -4.7087     6.2524   233.4277 </r>
       <r>    -4.4907     2.6140   233.9977 </r>
       <r>    -4.2726     0.9954   234.2147 </r>
       <r>    -4.0546     7.8043   235.9162 </r>
       <r>    -3.8366     7.2413   237.4949 </r>
       <r>    -3.6186    12.5393   240.2288 </r>
       <r>    -3.4006    13.6639   243.2078 </r>
       <r>    -3.1825    16.1767   246.7346 </r>
       <r>    -2.9645    17.8129   250.6182 </r>
       <r>    -2.7465    16.3472   254.1822 </r>
       <r>    -2.5285    18.7268   258.2651 </r>
       <r>    -2.3105    21.5186   262.9566 </r>
       <r>    -2.0924    12.6997   265.7254 </r>
       <r>    -1.8744    10.2158   267.9526 </r>
       <r>    -1.6564     8.1209   269.7231 </r>
       <r>    -1.4384     1.2588   269.9976 </r>
       <r>    -1.2204     0.0111   270.0000 </r>
       <r>    -1.0023     0.0000   270.0000 </r>
       <r>    -0.7843     0.0000   270.0000 </r>
       <r>    -0.5663     0.0000   270.0000 </r>
       <r>    -0.3483     0.0000   270.0000 </r>
       <r>    -0.1302     0.0000   270.0000 </r>
       <r>     0.0878     0.0000   270.0000 </r>
       <r>     0.3058     0.0384   270.0084 </r>
       <r>     0.5238     0.9321   270.2116 </r>
       <r>     0.7418     4.0844   271.1021 </r>
       <r>     0.9599    10.6115   273.4156 </r>
       <r>     1.1779    11.4806   275.9186 </r>
       <r>     1.3959     9.9906   278.0968 </r>
       <r>     1.6139    15.7120   281.5223 </r>
       <r>     1.8319    23.1966   286.5796 </r>
       <r>     2.0500    24.5850   291.9397 </r>
       <r>     2.2680    25.6285   297.5272 </r>
       <r>     2.4860    26.5441   303.3144 </r>
       <r>     2.7040    34.4140   310.8174 </r>
       <r>     2.9220    31.7078   317.7304 </r>
       <r>     3.1401    35.4206   325.4528 </r>
       <r>     3.3581    51.2572   336.6279 </r>
       <r>     3.5761    59.2846   349.5532 </r>
       <r>     3.7941    62.5183   363.1835 </r>
       <r>     4.0121    61.0753   376.4992 </r>
       <r>     4.2302    61.0661   389.8129 </r>
       <r>     4.4482    60.7801   403.0643 </r>
       <r>     4.6662    53.5427   414.7377 </r>
       <r>     4.8842    48.7319   425.3623 </r>
       <r>     5.1023    37.0772   433.4459 </r>
       <r>     5.3203    32.3749   440.5043 </r>
       <r>     5.5383    28.9754   446.8215 </r>
       <r>     5.7563    28.1377   452.9562 </r>
       <r>     5.9743    17.9717   456.8744 </r>
       <r>     6.1924    14.0160   459.9301 </r>
       <r>     6.4104    10.3151   462.1791 </r>
       <r>     6.6284    11.6297   464.7146 </r>
       <r>     6.8464    13.9701   467.7604 </r>
       <r>     7.0644    16.1011   471.2707 </r>
       <r>     7.2825    19.1309   475.4417 </r>
       <r>     7.5005    17.6094   479.2809 </r>
       <r>     7.7185    18.3901   483.2903 </r>
       <r>     7.9365    23.1156   488.3300 </r>
       <r>     8.1545    28.7406   494.5961 </r>
       <r>     8.3726    25.8242   500.2263 </r>
       <r>     8.5906    26.5396   506.0125 </r>
       <r>     8.8086    38.9346   514.5010 </r>
       <r>     9.0266    45.4945   524.4198 </r>
       <r>     9.2447    44.9618   534.2224 </r>
       <r>     9.4627    42.8630   543.5674 </r>
       <r>     9.6807    43.6276   553.0792 </r>
       <r>     9.8987    46.5030   563.2178 </r>
       <r>    10.1167    45.1254   573.0561 </r>
       <r>    10.3348    41.2272   582.0445 </r>
       <r>    10.5528    43.5937   591.5488 </r>
       <r>    10.7708    41.1286   600.5157 </r>
       <r>    10.9888    35.8916   608.3408 </r>
       <r>    11.2068    32.4047   615.4057 </r>
       <r>    11.4249    23.4026   620.5080 </r>
       <r>    11.6429    12.5708   623.2486 </r>
       <r>    11.8609     2.7338   623.8447 </r>
       <r>    12.0789     0.6955   623.9963 </r>
       <r>    12.2969     0.0169   624.0000 </r>
       <r>    12.5150     0.0000   624.0000 </r>
       <r>    12.7330     0.0000   624.0000 </r>
       <r>    12.9510     0.0000   624.0000 </r>
       <r>    13.1690     0.0000   624.0000 </r>
       <r>    13.3871     0.0000   624.0000 </r>
       <r>    13.6051     0.0000   624.0000 </r>
       <r>    13.8231     0.0000   624.0000 </r>
       <r>    14.0411     0.0000   624.0000 </r>
       <r>    14.2591     0.0000   624.0000 </r>
       <r>    14.4772     0.0000   624.0000 </r>
       <r>    14.6952     0.0000   624.0000 </r>
       <r>    14.9132     0.0000   624.0000 </r>
      </set>
     </set>
    </array>
   </total>
  </dos>
 </calculation>
 <structure name="finalpos" >
  <crystal>
   <varray name="basis" >
    <v>       8.93249989       0.00000000       0.00000000 </v>
    <v>       0.00575300       9.05559834       0.00000000 </v>
    <v>       0.03210180      -0.01574346       8.93712807 </v>
   </varray>
   <i name="volume">    722.91652451 </i>
   <varray name="rec_basis" >
    <v>       0.11195074      -0.00007112      -0.00040225 </v>
    <v>       0.00000000       0.11042893       0.00019453 </v>
    <v>       0.00000000       0.00000000       0.11189277 </v>
   </varray>
  </crystal>
  <varray name="positions" >
   <v>       0.99688001       0.99204997       0.99924002 </v>
   <v>       0.25398003       0.99714995       0.24912000 </v>
   <v>       0.24803003       0.50165000       0.24955001 </v>
   <v>       0.50501006       0.49745998       0.99834003 </v>
   <v>       0.50479003       0.24631001       0.74710002 </v>
   <v>       0.99427992       0.50449999       0.49779000 </v>
   <v>       0.49950005       0.75481999       0.74817004 </v>
   <v>       0.99437004       0.23617001       0.26379999 </v>
   <v>       0.75718000       0.74102998       0.01100000 </v>
   <v>       0.00201000       0.25541000       0.73894001 </v>
   <v>       0.75307001       0.26163001       0.50533002 </v>
   <v>       0.99514004       0.74492004       0.74511997 </v>
   <v>       0.25679999       0.49462002       0.74545002 </v>
   <v>       0.24788999       0.24839000       0.99657997 </v>
   <v>       0.50833000       0.25676999       0.25376001 </v>
   <v>       0.74879004       0.98787999       0.26967001 </v>
   <v>       0.75719000       0.25603001       0.99591997 </v>
   <v>       0.24762001       0.74973999       0.99974006 </v>
   <v>       0.25272001       0.24823001       0.50015003 </v>
   <v>       0.24457999       0.75048999       0.49983999 </v>
   <v>       0.24982001       0.24942998       0.24825000 </v>
   <v>       0.26146999       0.99984002       0.99295996 </v>
   <v>       0.00281000       0.25024000       0.00130000 </v>
   <v>       0.75313998       0.24617000       0.25492002 </v>
   <v>       0.74767001       0.99748000       0.01202000 </v>
   <v>       0.50714994       0.99977000       0.24673000 </v>
   <v>       0.99051999       0.48088002       0.24100998 </v>
   <v>       0.50519005       0.76130999       0.00855000 </v>
   <v>       0.98896989       0.00202000       0.73708999 </v>
   <v>       0.75744996       0.24437997       0.74896999 </v>
   <v>       0.73632001       0.00417000       0.51063000 </v>
   <v>       0.50563996       0.23264999       0.49544997 </v>
   <v>       0.50008998       0.00061000       0.73471998 </v>
   <v>       0.99720000       0.99771992       0.25899999 </v>
   <v>       0.50427997       0.24673000       0.00262000 </v>
   <v>       0.25133999       0.74958002       0.24910999 </v>
   <v>       0.24328000       0.50072997       0.99510994 </v>
   <v>       0.99837005       0.74313996       0.00460000 </v>
   <v>       0.75633000       0.73891003       0.25767000 </v>
   <v>       0.75839004       0.50315998       0.00288000 </v>
   <v>       0.50700002       0.50333002       0.25878999 </v>
   <v>       0.24900999       0.25315000       0.74854000 </v>
   <v>       0.24446000       0.99823996       0.50287998 </v>
   <v>       0.99804009       0.24229999       0.50128003 </v>
   <v>       0.24177002       0.75340997       0.75018002 </v>
   <v>       0.25841001       0.50062002       0.50129001 </v>
   <v>       0.99000004       0.76215003       0.49746000 </v>
   <v>       0.99203996       0.50055999       0.75138002 </v>
   <v>       0.75036005       0.74888000       0.74756004 </v>
   <v>       0.74036002       0.50197000       0.50067003 </v>
   <v>       0.50575006       0.74958002       0.49720000 </v>
   <v>       0.50501003       0.50217998       0.73912003 </v>
   <v>       0.51588997       0.01358000       0.98075008 </v>
   <v>       0.99841994       0.50976998       0.98613004 </v>
   <v>       0.50379003       0.73926997       0.25905001 </v>
   <v>       0.23780002       0.01082000       0.74607998 </v>
   <v>       0.47957999       0.98308000       0.49717999 </v>
   <v>       0.74279003       0.97869994       0.76450995 </v>
   <v>       0.99864998       0.77573999       0.26102000 </v>
   <v>       0.73551001       0.51468004       0.26666001 </v>
   <v>       0.02362000       0.99783001       0.49557002 </v>
   <v>       0.50539000       0.52833005       0.49917999 </v>
   <v>       0.73876003       0.52828003       0.73814999 </v>
   <v>       0.75400003       0.72937999       0.49116997 </v>
  </varray>
 </structure>
</modeling>
