  64  64   0   0
  0.1002948E+02  0.8598305E-09  0.8617865E-09  0.8662673E-09  0.5000000E-15
  1.000000000000000E-004
  CAR 
 HECN                                    
     15.38254827    -58.78854736  301      9.61668997      1.00000000
    -58.789  0.0000E+00  0.0000E+00
    -58.541  0.0000E+00  0.0000E+00
    -58.294  0.0000E+00  0.0000E+00
    -58.047  0.0000E+00  0.0000E+00
    -57.800  0.0000E+00  0.0000E+00
    -57.552  0.0000E+00  0.0000E+00
    -57.305  0.0000E+00  0.0000E+00
    -57.058  0.0000E+00  0.0000E+00
    -56.811  0.0000E+00  0.0000E+00
    -56.563  0.0000E+00  0.0000E+00
    -56.316  0.0000E+00  0.0000E+00
    -56.069  0.0000E+00  0.0000E+00
    -55.822  0.4451E-09  0.1100E-09
    -55.574  0.1454E-02  0.3594E-03
    -55.327  0.2854E+00  0.7091E-01
    -55.080  0.2726E+00  0.1383E+00
    -54.833  0.6833E-02  0.1400E+00
    -54.586  0.1803E-07  0.1400E+00
    -54.338  0.0000E+00  0.1400E+00
    -54.091  0.0000E+00  0.1400E+00
    -53.844  0.0000E+00  0.1400E+00
    -53.597  0.0000E+00  0.1400E+00
    -53.349  0.0000E+00  0.1400E+00
    -53.102  0.0000E+00  0.1400E+00
    -52.855  0.0000E+00  0.1400E+00
    -52.608  0.0000E+00  0.1400E+00
    -52.360  0.0000E+00  0.1400E+00
    -52.113  0.0000E+00  0.1400E+00
    -51.866  0.0000E+00  0.1400E+00
    -51.619  0.0000E+00  0.1400E+00
    -51.371  0.0000E+00  0.1400E+00
    -51.124  0.0000E+00  0.1400E+00
    -50.877  0.0000E+00  0.1400E+00
    -50.630  0.0000E+00  0.1400E+00
    -50.382  0.0000E+00  0.1400E+00
    -50.135  0.0000E+00  0.1400E+00
    -49.888  0.0000E+00  0.1400E+00
    -49.641  0.0000E+00  0.1400E+00
    -49.394  0.0000E+00  0.1400E+00
    -49.146  0.0000E+00  0.1400E+00
    -48.899  0.0000E+00  0.1400E+00
    -48.652  0.0000E+00  0.1400E+00
    -48.405  0.0000E+00  0.1400E+00
    -48.157  0.0000E+00  0.1400E+00
    -47.910  0.0000E+00  0.1400E+00
    -47.663  0.0000E+00  0.1400E+00
    -47.416  0.0000E+00  0.1400E+00
    -47.168  0.0000E+00  0.1400E+00
    -46.921  0.8981E-17  0.1400E+00
    -46.674  0.8774E-07  0.1400E+00
    -46.427  0.1208E-01  0.1430E+00
    -46.179  0.3838E+00  0.2379E+00
    -45.932  0.1702E+00  0.2800E+00
    -45.685  0.1275E-03  0.2800E+00
    -45.438  0.2427E-11  0.2800E+00
    -45.191  0.0000E+00  0.2800E+00
    -44.943  0.0000E+00  0.2800E+00
    -44.696  0.0000E+00  0.2800E+00
    -44.449  0.0000E+00  0.2800E+00
    -44.202  0.0000E+00  0.2800E+00
    -43.954  0.0000E+00  0.2800E+00
    -43.707  0.0000E+00  0.2800E+00
    -43.460  0.0000E+00  0.2800E+00
    -43.213  0.0000E+00  0.2800E+00
    -42.965  0.0000E+00  0.2800E+00
    -42.718  0.0000E+00  0.2800E+00
    -42.471  0.0000E+00  0.2800E+00
    -42.224  0.0000E+00  0.2800E+00
    -41.976  0.0000E+00  0.2800E+00
    -41.729  0.0000E+00  0.2800E+00
    -41.482  0.0000E+00  0.2800E+00
    -41.235  0.0000E+00  0.2800E+00
    -40.987  0.0000E+00  0.2800E+00
    -40.740  0.0000E+00  0.2800E+00
    -40.493  0.0000E+00  0.2800E+00
    -40.246  0.0000E+00  0.2800E+00
    -39.999  0.0000E+00  0.2800E+00
    -39.751  0.0000E+00  0.2800E+00
    -39.504  0.0000E+00  0.2800E+00
    -39.257  0.0000E+00  0.2800E+00
    -39.010  0.0000E+00  0.2800E+00
    -38.762  0.0000E+00  0.2800E+00
    -38.515  0.0000E+00  0.2800E+00
    -38.268  0.0000E+00  0.2800E+00
    -38.021  0.0000E+00  0.2800E+00
    -37.773  0.0000E+00  0.2800E+00
    -37.526  0.0000E+00  0.2800E+00
    -37.279  0.0000E+00  0.2800E+00
    -37.032  0.0000E+00  0.2800E+00
    -36.784  0.0000E+00  0.2800E+00
    -36.537  0.0000E+00  0.2800E+00
    -36.290  0.0000E+00  0.2800E+00
    -36.043  0.0000E+00  0.2800E+00
    -35.796  0.0000E+00  0.2800E+00
    -35.548  0.0000E+00  0.2800E+00
    -35.301  0.0000E+00  0.2800E+00
    -35.054  0.0000E+00  0.2800E+00
    -34.807  0.1357E-11  0.2800E+00
    -34.559  0.6983E-04  0.2800E+00
    -34.312  0.5226E-01  0.2929E+00
    -34.065  0.3205E+00  0.3722E+00
    -33.818  0.9896E+00  0.6169E+00
    -33.570  0.9361E-01  0.6400E+00
    -33.323  0.9150E-05  0.6400E+00
    -33.076  0.1679E-13  0.6400E+00
    -32.829  0.0000E+00  0.6400E+00
    -32.581  0.0000E+00  0.6400E+00
    -32.334  0.0000E+00  0.6400E+00
    -32.087  0.0000E+00  0.6400E+00
    -31.840  0.0000E+00  0.6400E+00
    -31.592  0.0000E+00  0.6400E+00
    -31.345  0.0000E+00  0.6400E+00
    -31.098  0.0000E+00  0.6400E+00
    -30.851  0.0000E+00  0.6400E+00
    -30.604  0.2389E-10  0.6400E+00
    -30.356  0.2837E-03  0.6401E+00
    -30.109  0.7963E-01  0.6598E+00
    -29.862  0.3097E+00  0.7363E+00
    -29.615  0.8436E+00  0.9449E+00
    -29.367  0.6399E+00  0.1103E+01
    -29.120  0.1104E+01  0.1376E+01
    -28.873  0.1737E+00  0.1419E+01
    -28.626  0.4393E-02  0.1420E+01
    -28.378  0.1354E-07  0.1420E+01
    -28.131  0.0000E+00  0.1420E+01
    -27.884  0.0000E+00  0.1420E+01
    -27.637  0.0000E+00  0.1420E+01
    -27.389  0.0000E+00  0.1420E+01
    -27.142  0.0000E+00  0.1420E+01
    -26.895  0.0000E+00  0.1420E+01
    -26.648  0.0000E+00  0.1420E+01
    -26.401  0.0000E+00  0.1420E+01
    -26.153  0.0000E+00  0.1420E+01
    -25.906  0.0000E+00  0.1420E+01
    -25.659  0.0000E+00  0.1420E+01
    -25.412  0.0000E+00  0.1420E+01
    -25.164  0.0000E+00  0.1420E+01
    -24.917  0.0000E+00  0.1420E+01
    -24.670  0.0000E+00  0.1420E+01
    -24.423  0.0000E+00  0.1420E+01
    -24.175  0.0000E+00  0.1420E+01
    -23.928  0.0000E+00  0.1420E+01
    -23.681  0.0000E+00  0.1420E+01
    -23.434  0.0000E+00  0.1420E+01
    -23.186  0.2455E-15  0.1420E+01
    -22.939  0.8630E-06  0.1420E+01
    -22.692  0.3291E-01  0.1428E+01
    -22.445  0.7613E+00  0.1616E+01
    -22.197  0.8025E+00  0.1815E+01
    -21.950  0.1017E+00  0.1840E+01
    -21.703  0.2951E-03  0.1840E+01
    -21.456  0.2556E-10  0.1840E+01
    -21.209  0.0000E+00  0.1840E+01
    -20.961  0.0000E+00  0.1840E+01
    -20.714  0.0000E+00  0.1840E+01
    -20.467  0.0000E+00  0.1840E+01
    -20.220  0.0000E+00  0.1840E+01
    -19.972  0.0000E+00  0.1840E+01
    -19.725  0.0000E+00  0.1840E+01
    -19.478  0.0000E+00  0.1840E+01
    -19.231  0.0000E+00  0.1840E+01
    -18.983  0.0000E+00  0.1840E+01
    -18.736  0.0000E+00  0.1840E+01
    -18.489  0.0000E+00  0.1840E+01
    -18.242  0.0000E+00  0.1840E+01
    -17.994  0.0000E+00  0.1840E+01
    -17.747  0.0000E+00  0.1840E+01
    -17.500  0.0000E+00  0.1840E+01
    -17.253  0.0000E+00  0.1840E+01
    -17.005  0.0000E+00  0.1840E+01
    -16.758  0.0000E+00  0.1840E+01
    -16.511  0.0000E+00  0.1840E+01
    -16.264  0.0000E+00  0.1840E+01
    -16.017  0.0000E+00  0.1840E+01
    -15.769  0.0000E+00  0.1840E+01
    -15.522  0.0000E+00  0.1840E+01
    -15.275  0.0000E+00  0.1840E+01
    -15.028  0.0000E+00  0.1840E+01
    -14.780  0.0000E+00  0.1840E+01
    -14.533  0.0000E+00  0.1840E+01
    -14.286  0.0000E+00  0.1840E+01
    -14.039  0.0000E+00  0.1840E+01
    -13.791  0.0000E+00  0.1840E+01
    -13.544  0.0000E+00  0.1840E+01
    -13.297  0.0000E+00  0.1840E+01
    -13.050  0.0000E+00  0.1840E+01
    -12.802  0.0000E+00  0.1840E+01
    -12.555  0.0000E+00  0.1840E+01
    -12.308  0.0000E+00  0.1840E+01
    -12.061  0.0000E+00  0.1840E+01
    -11.814  0.0000E+00  0.1840E+01
    -11.566  0.0000E+00  0.1840E+01
    -11.319  0.0000E+00  0.1840E+01
    -11.072  0.0000E+00  0.1840E+01
    -10.825  0.0000E+00  0.1840E+01
    -10.577  0.0000E+00  0.1840E+01
    -10.330  0.0000E+00  0.1840E+01
    -10.083  0.0000E+00  0.1840E+01
     -9.836  0.0000E+00  0.1840E+01
     -9.588  0.0000E+00  0.1840E+01
     -9.341  0.0000E+00  0.1840E+01
     -9.094  0.0000E+00  0.1840E+01
     -8.847  0.0000E+00  0.1840E+01
     -8.599  0.0000E+00  0.1840E+01
     -8.352  0.0000E+00  0.1840E+01
     -8.105  0.0000E+00  0.1840E+01
     -7.858  0.0000E+00  0.1840E+01
     -7.610  0.8492E-12  0.1840E+01
     -7.363  0.1304E-04  0.1840E+01
     -7.116  0.1175E-01  0.1843E+01
     -6.869  0.6400E-01  0.1859E+01
     -6.622  0.5732E-01  0.1873E+01
     -6.374  0.8584E-01  0.1894E+01
     -6.127  0.1382E+00  0.1928E+01
     -5.880  0.2117E+00  0.1981E+01
     -5.633  0.1963E+00  0.2029E+01
     -5.385  0.1861E+00  0.2075E+01
     -5.138  0.9868E-01  0.2100E+01
     -4.891  0.1776E-02  0.2100E+01
     -4.644  0.1828E-08  0.2100E+01
     -4.396  0.3659E-17  0.2100E+01
     -4.149  0.2125E-07  0.2100E+01
     -3.902  0.1646E-02  0.2100E+01
     -3.655  0.5869E-01  0.2115E+01
     -3.407  0.2089E-01  0.2120E+01
     -3.160  0.5696E-01  0.2134E+01
     -2.913  0.1175E+00  0.2163E+01
     -2.666  0.1377E+00  0.2197E+01
     -2.419  0.2507E+00  0.2259E+01
     -2.171  0.2046E+00  0.2310E+01
     -1.924  0.2129E+00  0.2362E+01
     -1.677  0.2413E+00  0.2422E+01
     -1.430  0.1741E+00  0.2465E+01
     -1.182  0.5583E-01  0.2479E+01
     -0.935  0.4140E-02  0.2480E+01
     -0.688  0.3815E-05  0.2480E+01
     -0.441  0.1061E-12  0.2480E+01
     -0.193  0.0000E+00  0.2480E+01
      0.054  0.0000E+00  0.2480E+01
      0.301  0.0000E+00  0.2480E+01
      0.548  0.3030E-11  0.2480E+01
      0.796  0.1903E-04  0.2480E+01
      1.043  0.4001E-02  0.2481E+01
      1.290  0.1838E-01  0.2486E+01
      1.537  0.7658E-01  0.2504E+01
      1.785  0.9523E-01  0.2528E+01
      2.032  0.1412E+00  0.2563E+01
      2.279  0.2069E+00  0.2614E+01
      2.526  0.2696E+00  0.2681E+01
      2.773  0.2700E+00  0.2748E+01
      3.021  0.2922E+00  0.2820E+01
      3.268  0.3368E+00  0.2903E+01
      3.515  0.3468E+00  0.2989E+01
      3.762  0.3987E+00  0.3087E+01
      4.010  0.5125E+00  0.3214E+01
      4.257  0.5669E+00  0.3354E+01
      4.504  0.6238E+00  0.3508E+01
      4.751  0.6049E+00  0.3658E+01
      4.999  0.6047E+00  0.3807E+01
      5.246  0.5679E+00  0.3948E+01
      5.493  0.4411E+00  0.4057E+01
      5.740  0.3349E+00  0.4140E+01
      5.988  0.3210E+00  0.4219E+01
      6.235  0.2594E+00  0.4283E+01
      6.482  0.2077E+00  0.4335E+01
      6.729  0.1636E+00  0.4375E+01
      6.976  0.8183E-01  0.4395E+01
      7.224  0.8858E-01  0.4417E+01
      7.471  0.1672E+00  0.4459E+01
      7.718  0.1991E+00  0.4508E+01
      7.965  0.2027E+00  0.4558E+01
      8.213  0.1938E+00  0.4606E+01
      8.460  0.2281E+00  0.4662E+01
      8.707  0.3416E+00  0.4747E+01
      8.954  0.3021E+00  0.4821E+01
      9.202  0.2915E+00  0.4893E+01
      9.449  0.3259E+00  0.4974E+01
      9.696  0.3360E+00  0.5057E+01
      9.943  0.4071E+00  0.5158E+01
     10.191  0.4811E+00  0.5277E+01
     10.438  0.5546E+00  0.5414E+01
     10.685  0.6034E+00  0.5563E+01
     10.932  0.5756E+00  0.5705E+01
     11.180  0.5427E+00  0.5839E+01
     11.427  0.5621E+00  0.5978E+01
     11.674  0.5482E+00  0.6114E+01
     11.921  0.4453E+00  0.6224E+01
     12.168  0.6455E-01  0.6240E+01
     12.416  0.1338E-03  0.6240E+01
     12.663  0.3442E-10  0.6240E+01
     12.910  0.0000E+00  0.6240E+01
     13.157  0.0000E+00  0.6240E+01
     13.405  0.0000E+00  0.6240E+01
     13.652  0.0000E+00  0.6240E+01
     13.899  0.0000E+00  0.6240E+01
     14.146  0.0000E+00  0.6240E+01
     14.394  0.0000E+00  0.6240E+01
     14.641  0.0000E+00  0.6240E+01
     14.888  0.0000E+00  0.6240E+01
     15.135  0.0000E+00  0.6240E+01
     15.383  0.0000E+00  0.6240E+01
