       N       E                     dE             d eps       ncg     rms          rms(c)
DAV:   1     0.707074760964E+04    0.70707E+04   -0.21156E+05  8856   0.155E+03
DAV:   2     0.398357676272E+03   -0.66724E+04   -0.64569E+04  8832   0.654E+02
DAV:   3    -0.641145874091E+03   -0.10395E+04   -0.96602E+03 13680   0.230E+02
DAV:   4    -0.761553953367E+03   -0.12041E+03   -0.11655E+03 14736   0.971E+01
DAV:   5    -0.778047684746E+03   -0.16494E+02   -0.16130E+02 17424   0.309E+01    0.736E+01
RMM:   6    -0.787242378527E+03   -0.91947E+01   -0.16850E+03 10384   0.116E+02    0.981E+01
RMM:   7    -0.668912008890E+03    0.11833E+03   -0.29539E+02 12574   0.483E+01    0.538E+01
RMM:   8    -0.651047202546E+03    0.17865E+02   -0.86387E+01 12777   0.243E+01    0.311E+01
RMM:   9    -0.640281332820E+03    0.10766E+02   -0.26856E+01 13767   0.124E+01    0.197E+01
RMM:  10    -0.638426453528E+03    0.18549E+01   -0.95294E+00 14044   0.791E+00    0.121E+01
RMM:  11    -0.637841588675E+03    0.58486E+00   -0.46107E+00 14040   0.458E+00    0.102E+01
RMM:  12    -0.637374199257E+03    0.46739E+00   -0.24922E+00 13888   0.400E+00    0.808E+00
RMM:  13    -0.637686202641E+03   -0.31200E+00   -0.39697E+00 12670   0.474E+00    0.113E+01
RMM:  14    -0.637329944121E+03    0.35626E+00   -0.28257E+00 12387   0.435E+00    0.553E+00
RMM:  15    -0.637357487172E+03   -0.27543E-01   -0.13090E+00 13350   0.266E+00    0.607E+00
RMM:  16    -0.637082679849E+03    0.27481E+00   -0.51378E-01 12544   0.204E+00    0.349E+00
RMM:  17    -0.637032581634E+03    0.50098E-01   -0.43516E-01 13723   0.140E+00    0.238E+00
RMM:  18    -0.637026619043E+03    0.59626E-02   -0.50632E-01 14271   0.126E+00    0.187E+00
RMM:  19    -0.637027440686E+03   -0.82164E-03   -0.21099E-01 13858   0.107E+00    0.115E+00
RMM:  20    -0.637042010745E+03   -0.14570E-01   -0.15580E-01 14248   0.635E-01    0.128E+00
RMM:  21    -0.637035099698E+03    0.69110E-02   -0.67208E-02 12809   0.521E-01    0.706E-01
RMM:  22    -0.637033500789E+03    0.15989E-02   -0.65750E-02 13606   0.455E-01    0.651E-01
RMM:  23    -0.637032714607E+03    0.78618E-03   -0.37492E-02 13767   0.373E-01    0.254E-01
RMM:  24    -0.637034294837E+03   -0.15802E-02   -0.19454E-02 13371   0.245E-01    0.357E-01
RMM:  25    -0.637034606242E+03   -0.31140E-03   -0.12465E-02 13211   0.171E-01    0.882E-02
RMM:  26    -0.637035275846E+03   -0.66960E-03   -0.85583E-03 13000   0.117E-01    0.874E-02
RMM:  27    -0.637035754795E+03   -0.47895E-03   -0.52909E-03 12760   0.108E-01    0.755E-02
RMM:  28    -0.637036125299E+03   -0.37050E-03   -0.45564E-03 11114   0.677E-02    0.420E-02
RMM:  29    -0.637036295841E+03   -0.17054E-03   -0.25060E-03 12098   0.646E-02    0.188E-02
RMM:  30    -0.637036417973E+03   -0.12213E-03   -0.13242E-03 10642   0.464E-02    0.182E-02
RMM:  31    -0.637036480958E+03   -0.62985E-04   -0.67487E-04  9700   0.381E-02    0.981E-03
RMM:  32    -0.637036531025E+03   -0.50067E-04   -0.52531E-04  8199   0.307E-02    0.802E-03
RMM:  33    -0.637036547993E+03   -0.16968E-04   -0.21371E-04  7741   0.277E-02    0.361E-03
RMM:  34    -0.637036563354E+03   -0.15361E-04   -0.15857E-04  7512   0.202E-02    0.226E-03
RMM:  35    -0.637036572172E+03   -0.88177E-05   -0.85593E-05  7214   0.187E-02
   1 F= -.63703657E+03 E0= -.63695257E+03  d E =-.637037E+03
       N       E                     dE             d eps       ncg     rms          rms(c)
DAV:   1    -0.637950531766E+03   -0.91397E+00   -0.22392E+01 12336   0.209E+01    0.864E+00
RMM:   2    -0.643029370997E+03   -0.50788E+01   -0.14274E+01 10243   0.147E+01    0.241E+01
RMM:   3    -0.637935584158E+03    0.50938E+01   -0.33360E+00 10135   0.932E+00    0.113E+01
RMM:   4    -0.637152222743E+03    0.78336E+00   -0.81997E-01 11325   0.339E+00    0.428E+00
RMM:   5    -0.637192914353E+03   -0.40692E-01   -0.35952E-01 11271   0.213E+00    0.503E+00
RMM:   6    -0.637039164585E+03    0.15375E+00   -0.23351E-01 11202   0.165E+00    0.246E+00
RMM:   7    -0.637007840711E+03    0.31324E-01   -0.10785E-01 11672   0.998E-01    0.155E+00
RMM:   8    -0.637006406587E+03    0.14341E-02   -0.41528E-02 11379   0.717E-01    0.166E+00
RMM:   9    -0.636989718739E+03    0.16688E-01   -0.18844E-02 11289   0.512E-01    0.465E-01
RMM:  10    -0.636991393864E+03   -0.16751E-02   -0.11091E-02 12858   0.256E-01    0.637E-01
RMM:  11    -0.636989262445E+03    0.21314E-02   -0.41822E-03 12113   0.206E-01    0.279E-01
RMM:  12    -0.636989321426E+03   -0.58981E-04   -0.22463E-03 12188   0.136E-01    0.241E-01
RMM:  13    -0.636989206189E+03    0.11524E-03   -0.14084E-03 12955   0.904E-02    0.118E-01
RMM:  14    -0.636989461915E+03   -0.25573E-03   -0.10029E-03 13015   0.720E-02    0.136E-01
RMM:  15    -0.636989530703E+03   -0.68788E-04   -0.70758E-04 12437   0.683E-02    0.104E-01
RMM:  16    -0.636989648072E+03   -0.11737E-03   -0.54427E-04 11663   0.643E-02    0.114E-01
RMM:  17    -0.636989633969E+03    0.14103E-04   -0.38240E-04 11759   0.517E-02    0.447E-02
RMM:  18    -0.636989687077E+03   -0.53108E-04   -0.31087E-04 11792   0.418E-02    0.691E-02
RMM:  19    -0.636989684400E+03    0.26771E-05   -0.18887E-04 10738   0.405E-02    0.340E-02
RMM:  20    -0.636989699743E+03   -0.15343E-04   -0.14788E-04 11019   0.288E-02    0.290E-02
RMM:  21    -0.636989700324E+03   -0.58056E-06   -0.79478E-05  8902   0.243E-02
   2 F= -.63698970E+03 E0= -.63690755E+03  d E =0.468718E-01
       N       E                     dE             d eps       ncg     rms          rms(c)
DAV:   1    -0.637509321158E+03   -0.51962E+00   -0.10427E+01 12048   0.142E+01    0.620E+00
RMM:   2    -0.640290027013E+03   -0.27807E+01   -0.61470E+00 10758   0.912E+00    0.171E+01
RMM:   3    -0.637444473234E+03    0.28456E+01   -0.18455E+00 10236   0.684E+00    0.734E+00
RMM:   4    -0.637147643929E+03    0.29683E+00   -0.45103E-01 11339   0.241E+00    0.363E+00
RMM:   5    -0.637155310873E+03   -0.76669E-02   -0.18883E-01 11055   0.150E+00    0.370E+00
RMM:   6    -0.637070464056E+03    0.84847E-01   -0.10396E-01 10974   0.119E+00    0.158E+00
RMM:   7    -0.637064811308E+03    0.56527E-02   -0.48426E-02 11428   0.674E-01    0.146E+00
RMM:   8    -0.637059746665E+03    0.50646E-02   -0.22630E-02 11151   0.532E-01    0.120E+00
RMM:   9    -0.637050846153E+03    0.89005E-02   -0.11113E-02 11413   0.362E-01    0.364E-01
RMM:  10    -0.637051718903E+03   -0.87275E-03   -0.55964E-03 12427   0.218E-01    0.537E-01
RMM:  11    -0.637050133027E+03    0.15859E-02   -0.24064E-03 11467   0.169E-01    0.186E-01
RMM:  12    -0.637050226546E+03   -0.93520E-04   -0.15460E-03 12329   0.101E-01    0.193E-01
RMM:  13    -0.637050052983E+03    0.17356E-03   -0.74422E-04 12319   0.720E-02    0.906E-02
RMM:  14    -0.637050149368E+03   -0.96385E-04   -0.49383E-04 11509   0.608E-02    0.124E-01
RMM:  15    -0.637050134276E+03    0.15092E-04   -0.35585E-04 11224   0.509E-02    0.676E-02
RMM:  16    -0.637050181439E+03   -0.47162E-04   -0.30757E-04 12132   0.430E-02    0.745E-02
RMM:  17    -0.637050170361E+03    0.11078E-04   -0.21261E-04 11190   0.360E-02    0.291E-02
RMM:  18    -0.637050179024E+03   -0.86631E-05   -0.16079E-04 10418   0.288E-02    0.190E-02
RMM:  19    -0.637050186311E+03   -0.72870E-05   -0.10229E-04  9639   0.277E-02    0.220E-02
RMM:  20    -0.637050187549E+03   -0.12380E-05   -0.68032E-05  8078   0.221E-02
   3 F= -.63705019E+03 E0= -.63696679E+03  d E =-.136154E-01
       N       E                     dE             d eps       ncg     rms          rms(c)
DAV:   1    -0.637050217842E+03   -0.31532E-04   -0.48744E-04 15000   0.800E-02    0.459E-02
RMM:   2    -0.637050324480E+03   -0.10664E-03   -0.26423E-04  8842   0.587E-02    0.120E-01
RMM:   3    -0.637050216872E+03    0.10761E-03   -0.74597E-05  6821   0.457E-02    0.584E-02
RMM:   4    -0.637050200112E+03    0.16759E-04   -0.22446E-05  5626   0.221E-02    0.331E-02
RMM:   5    -0.637050206719E+03   -0.66069E-05   -0.19183E-05  5529   0.230E-02
   4 F= -.63705021E+03 E0= -.63696684E+03  d E =-.136345E-01
       N       E                     dE             d eps       ncg     rms          rms(c)
DAV:   1    -0.637146449656E+03   -0.96250E-01   -0.25629E+00 12072   0.705E+00    0.299E+00
RMM:   2    -0.637786706965E+03   -0.64026E+00   -0.16219E+00 10332   0.490E+00    0.869E+00
RMM:   3    -0.637163372047E+03    0.62333E+00   -0.42426E-01 10079   0.336E+00    0.432E+00
RMM:   4    -0.637056757499E+03    0.10661E+00   -0.10724E-01 11099   0.125E+00    0.164E+00
RMM:   5    -0.637057698675E+03   -0.94118E-03   -0.43519E-02 11146   0.735E-01    0.167E+00
RMM:   6    -0.637040878418E+03    0.16820E-01   -0.27549E-02 10986   0.571E-01    0.850E-01
RMM:   7    -0.637037474366E+03    0.34041E-02   -0.11639E-02 11312   0.355E-01    0.589E-01
RMM:   8    -0.637037345869E+03    0.12850E-03   -0.55174E-03 11118   0.265E-01    0.602E-01
RMM:   9    -0.637035056382E+03    0.22895E-02   -0.25518E-03 11052   0.187E-01    0.164E-01
RMM:  10    -0.637035333010E+03   -0.27663E-03   -0.13583E-03 11545   0.103E-01    0.259E-01
RMM:  11    -0.637034994571E+03    0.33844E-03   -0.56581E-04 10542   0.812E-02    0.887E-02
RMM:  12    -0.637035018996E+03   -0.24425E-04   -0.33398E-04 11554   0.476E-02    0.826E-02
RMM:  13    -0.637035004456E+03    0.14540E-04   -0.15385E-04 10507   0.325E-02    0.416E-02
RMM:  14    -0.637035042489E+03   -0.38033E-04   -0.10770E-04  8986   0.283E-02    0.573E-02
RMM:  15    -0.637035049481E+03   -0.69926E-05   -0.75645E-05  8572   0.300E-02
   5 F= -.63703505E+03 E0= -.63695227E+03  d E =0.152269E-02
       N       E                     dE             d eps       ncg     rms          rms(c)
DAV:   1    -0.637159685911E+03   -0.12464E+00   -0.25009E+00 11712   0.694E+00    0.300E+00
RMM:   2    -0.637815742113E+03   -0.65606E+00   -0.15148E+00 10666   0.461E+00    0.856E+00
RMM:   3    -0.637163208886E+03    0.65253E+00   -0.44452E-01 10239   0.336E+00    0.404E+00
RMM:   4    -0.637073730420E+03    0.89478E-01   -0.10869E-01 11091   0.122E+00    0.177E+00
RMM:   5    -0.637073845971E+03   -0.11555E-03   -0.45077E-02 11074   0.755E-01    0.172E+00
RMM:   6    -0.637055883616E+03    0.17962E-01   -0.26046E-02 11003   0.571E-01    0.818E-01
RMM:   7    -0.637053328028E+03    0.25556E-02   -0.11421E-02 11338   0.341E-01    0.648E-01
RMM:   8    -0.637052704128E+03    0.62390E-03   -0.55693E-03 10931   0.266E-01    0.602E-01
RMM:   9    -0.637050397028E+03    0.23071E-02   -0.26421E-03 11031   0.184E-01    0.176E-01
RMM:  10    -0.637050629863E+03   -0.23284E-03   -0.13830E-03 11404   0.106E-01    0.273E-01
RMM:  11    -0.637050211896E+03    0.41797E-03   -0.57646E-04 10359   0.843E-02    0.891E-02
RMM:  12    -0.637050225754E+03   -0.13858E-04   -0.36373E-04 11573   0.503E-02    0.913E-02
RMM:  13    -0.637050179971E+03    0.45783E-04   -0.15284E-04 10314   0.347E-02    0.427E-02
RMM:  14    -0.637050195515E+03   -0.15544E-04   -0.92279E-05  8832   0.289E-02    0.575E-02
RMM:  15    -0.637050187446E+03    0.80686E-05   -0.72125E-05  8431   0.275E-02
   6 F= -.63705019E+03 E0= -.63696681E+03  d E =-.136153E-01
       N       E                     dE             d eps       ncg     rms          rms(c)
DAV:   1    -0.637050220008E+03   -0.24494E-04   -0.45383E-04 13896   0.850E-02    0.558E-02
RMM:   2    -0.637050554193E+03   -0.33418E-03   -0.58802E-04  9401   0.750E-02    0.204E-01
RMM:   3    -0.637050225494E+03    0.32870E-03   -0.16867E-04  8167   0.608E-02    0.622E-02
RMM:   4    -0.637050203538E+03    0.21956E-04   -0.37399E-05  6147   0.235E-02    0.313E-02
RMM:   5    -0.637050202207E+03    0.13306E-05   -0.13627E-05  5035   0.195E-02
   7 F= -.63705020E+03 E0= -.63696679E+03  d E =-.136300E-01
       N       E                     dE             d eps       ncg     rms          rms(c)
DAV:   1    -0.637050205531E+03   -0.19931E-05   -0.64007E-05  9552   0.393E-02    0.329E-02
RMM:   2    -0.637050404931E+03   -0.19940E-03   -0.19564E-04  7478   0.538E-02    0.186E-01
RMM:   3    -0.637050208388E+03    0.19654E-03   -0.82108E-05  6703   0.453E-02    0.365E-02
RMM:   4    -0.637050198789E+03    0.95992E-05   -0.99019E-06  4826   0.140E-02
   8 F= -.63705020E+03 E0= -.63696680E+03  d E =-.136266E-01
       N       E                     dE             d eps       ncg     rms          rms(c)
DAV:   1    -0.637050197853E+03    0.10536E-04   -0.14263E-05  5328   0.215E-02    0.108E-02
RMM:   2    -0.637050213647E+03   -0.15795E-04   -0.14413E-05  5509   0.173E-02    0.532E-02
RMM:   3    -0.637050196965E+03    0.16682E-04   -0.79677E-06  4765   0.161E-02    0.960E-03
RMM:   4    -0.637050196572E+03    0.39289E-06   -0.26062E-06  4455   0.570E-03
   9 F= -.63705020E+03 E0= -.63696680E+03  d E =-.136244E-01
       N       E                     dE             d eps       ncg     rms          rms(c)
DAV:   1    -0.637050196512E+03    0.45252E-06   -0.39914E-06  5232   0.124E-02    0.677E-03
RMM:   2    -0.637050202741E+03   -0.62281E-05   -0.54512E-06  4593   0.114E-02
  10 F= -.63705020E+03 E0= -.63696679E+03  d E =-.136306E-01
       N       E                     dE             d eps       ncg     rms          rms(c)
DAV:   1    -0.637050196013E+03    0.49917E-06   -0.27041E-05  5376   0.259E-02    0.678E-03
RMM:   2    -0.637050206698E+03   -0.10685E-04   -0.59924E-06  4743   0.110E-02    0.440E-02
RMM:   3    -0.637050196266E+03    0.10432E-04   -0.53151E-06  4528   0.125E-02    0.101E-02
RMM:   4    -0.637050195443E+03    0.82324E-06   -0.10821E-06  4215   0.409E-03
  11 F= -.63705020E+03 E0= -.63696680E+03  d E =-.136233E-01
       N       E                     dE             d eps       ncg     rms          rms(c)
DAV:   1    -0.637043011024E+03    0.71852E-02   -0.40754E-01  9072   0.364E+00    0.237E-01
RMM:   2    -0.637053467324E+03   -0.10456E-01   -0.96865E-02 13946   0.918E-01    0.487E-01
RMM:   3    -0.637052314700E+03    0.11526E-02   -0.96392E-03 10687   0.352E-01    0.311E-01
RMM:   4    -0.637052081013E+03    0.23369E-03   -0.21766E-03 11990   0.148E-01    0.213E-01
RMM:   5    -0.637051888814E+03    0.19220E-03   -0.67758E-04 10299   0.926E-02    0.174E-01
RMM:   6    -0.637051726416E+03    0.16240E-03   -0.39490E-04 10303   0.571E-02    0.883E-02
RMM:   7    -0.637051824473E+03   -0.98057E-04   -0.40215E-04 10385   0.550E-02    0.157E-01
RMM:   8    -0.637051673870E+03    0.15060E-03   -0.25284E-04  9459   0.535E-02    0.577E-02
RMM:   9    -0.637051660418E+03    0.13452E-04   -0.12622E-04  8042   0.286E-02    0.339E-02
RMM:  10    -0.637051659550E+03    0.86751E-06   -0.56951E-05  6410   0.230E-02
  12 F= -.63705166E+03 E0= -.63696812E+03  d E =-.146411E-02
       N       E                     dE             d eps       ncg     rms          rms(c)
DAV:   1    -0.637049949848E+03    0.17106E-02   -0.87235E-02  9072   0.168E+00    0.111E-01
RMM:   2    -0.637052254773E+03   -0.23049E-02   -0.20826E-02 13901   0.426E-01    0.246E-01
RMM:   3    -0.637051954976E+03    0.29980E-03   -0.21335E-03 10291   0.166E-01    0.146E-01
RMM:   4    -0.637051905864E+03    0.49112E-04   -0.54601E-04 11426   0.724E-02    0.989E-02
RMM:   5    -0.637051867744E+03    0.38120E-04   -0.16687E-04  8253   0.453E-02    0.822E-02
RMM:   6    -0.637051833768E+03    0.33976E-04   -0.92538E-05  7425   0.292E-02    0.417E-02
RMM:   7    -0.637051848402E+03   -0.14634E-04   -0.88628E-05  7953   0.293E-02    0.639E-02
RMM:   8    -0.637051826813E+03    0.21589E-04   -0.69833E-05  7422   0.267E-02    0.316E-02
RMM:   9    -0.637051823956E+03    0.28568E-05   -0.35200E-05  6252   0.194E-02
  13 F= -.63705182E+03 E0= -.63696823E+03  d E =-.162851E-02
       N       E                     dE             d eps       ncg     rms          rms(c)
DAV:   1    -0.637049013508E+03    0.28133E-02   -0.18285E-01  9312   0.231E+00    0.133E-01
RMM:   2    -0.637052817264E+03   -0.38038E-02   -0.36168E-02 13644   0.568E-01    0.283E-01
RMM:   3    -0.637052537602E+03    0.27966E-03   -0.33959E-03 10731   0.212E-01    0.178E-01
RMM:   4    -0.637052478867E+03    0.58735E-04   -0.81802E-04 11990   0.837E-02    0.121E-01
RMM:   5    -0.637052397006E+03    0.81861E-04   -0.25105E-04  9036   0.550E-02    0.816E-02
RMM:   6    -0.637052363828E+03    0.33178E-04   -0.14556E-04  8869   0.336E-02    0.506E-02
RMM:   7    -0.637052399241E+03   -0.35413E-04   -0.14351E-04  8721   0.370E-02    0.905E-02
RMM:   8    -0.637052349684E+03    0.49557E-04   -0.63005E-05  6670   0.300E-02    0.368E-02
RMM:   9    -0.637052345929E+03    0.37555E-05   -0.41782E-05  6387   0.222E-02
  14 F= -.63705235E+03 E0= -.63696874E+03  d E =-.521973E-03
       N       E                     dE             d eps       ncg     rms          rms(c)
DAV:   1    -0.637050981765E+03    0.13679E-02   -0.78193E-02  9312   0.151E+00    0.872E-02
RMM:   2    -0.637052631801E+03   -0.16500E-02   -0.15584E-02 13675   0.369E-01    0.187E-01
RMM:   3    -0.637052511401E+03    0.12040E-03   -0.14669E-03 10228   0.142E-01    0.124E-01
RMM:   4    -0.637052493540E+03    0.17861E-04   -0.39175E-04 11172   0.611E-02    0.917E-02
RMM:   5    -0.637052457004E+03    0.36536E-04   -0.12422E-04  7657   0.411E-02    0.609E-02
RMM:   6    -0.637052437951E+03    0.19054E-04   -0.77883E-05  7507   0.254E-02    0.323E-02
RMM:   7    -0.637052458878E+03   -0.20928E-04   -0.61711E-05  6742   0.250E-02    0.691E-02
RMM:   8    -0.637052433004E+03    0.25875E-04   -0.37910E-05  6090   0.252E-02    0.194E-02
RMM:   9    -0.637052433055E+03   -0.51696E-07   -0.26327E-05  5958   0.169E-02
  15 F= -.63705243E+03 E0= -.63696885E+03  d E =-.609099E-03
       N       E                     dE             d eps       ncg     rms          rms(c)
DAV:   1    -0.637047045995E+03    0.53870E-02   -0.26415E-01  9936   0.310E+00    0.175E-01
RMM:   2    -0.637054037485E+03   -0.69915E-02   -0.63946E-02 13590   0.701E-01    0.371E-01
RMM:   3    -0.637053050618E+03    0.98687E-03   -0.51538E-03 10648   0.288E-01    0.221E-01
RMM:   4    -0.637052946298E+03    0.10432E-03   -0.13505E-03 11823   0.111E-01    0.138E-01
RMM:   5    -0.637052863286E+03    0.83012E-04   -0.40459E-04  9858   0.616E-02    0.963E-02
RMM:   6    -0.637052811725E+03    0.51561E-04   -0.17158E-04  8830   0.365E-02    0.511E-02
RMM:   7    -0.637052844071E+03   -0.32345E-04   -0.15823E-04  9104   0.366E-02    0.875E-02
RMM:   8    -0.637052802723E+03    0.41347E-04   -0.10012E-04  7939   0.338E-02    0.477E-02
RMM:   9    -0.637052793203E+03    0.95207E-05   -0.59816E-05  7135   0.226E-02
  16 F= -.63705279E+03 E0= -.63696920E+03  d E =-.360147E-03
       N       E                     dE             d eps       ncg     rms          rms(c)
DAV:   1    -0.637051481703E+03    0.13210E-02   -0.59832E-02  9696   0.148E+00    0.850E-02
RMM:   2    -0.637053147283E+03   -0.16656E-02   -0.14938E-02 13477   0.342E-01    0.195E-01
RMM:   3    -0.637052886080E+03    0.26120E-03   -0.12793E-03 10128   0.138E-01    0.107E-01
RMM:   4    -0.637052863012E+03    0.23068E-04   -0.34374E-04 10202   0.588E-02    0.663E-02
RMM:   5    -0.637052845850E+03    0.17162E-04   -0.10328E-04  7399   0.326E-02    0.447E-02
RMM:   6    -0.637052835906E+03    0.99440E-05   -0.48991E-05  6673   0.221E-02
  17 F= -.63705284E+03 E0= -.63696925E+03  d E =-.402850E-03
       N       E                     dE             d eps       ncg     rms          rms(c)
DAV:   1    -0.637050046187E+03    0.27997E-02   -0.13698E-01  9408   0.202E+00    0.113E-01
RMM:   2    -0.637053859121E+03   -0.38129E-02   -0.32281E-02 13335   0.506E-01    0.378E-01
RMM:   3    -0.637053134888E+03    0.72423E-03   -0.26301E-03 10878   0.186E-01    0.140E-01
RMM:   4    -0.637053120741E+03    0.14147E-04   -0.72001E-04 11602   0.722E-02    0.106E-01
RMM:   5    -0.637053067299E+03    0.53443E-04   -0.18330E-04  8415   0.446E-02    0.691E-02
RMM:   6    -0.637053047851E+03    0.19447E-04   -0.84503E-05  7055   0.281E-02    0.409E-02
RMM:   7    -0.637053050161E+03   -0.23100E-05   -0.59347E-05  7038   0.230E-02
  18 F= -.63705305E+03 E0= -.63696947E+03  d E =-.214255E-03
       N       E                     dE             d eps       ncg     rms          rms(c)
DAV:   1    -0.637052752000E+03    0.29585E-03   -0.14045E-02 10080   0.648E-01    0.433E-02
RMM:   2    -0.637053274778E+03   -0.52278E-03   -0.35458E-03 12606   0.168E-01    0.180E-01
RMM:   3    -0.637053061020E+03    0.21376E-03   -0.33120E-04  8608   0.741E-02    0.432E-02
RMM:   4    -0.637053062519E+03   -0.14991E-05   -0.10866E-04  8382   0.313E-02    0.311E-02
RMM:   5    -0.637053060241E+03    0.22780E-05   -0.32841E-05  6119   0.211E-02
  19 F= -.63705306E+03 E0= -.63696948E+03  d E =-.224336E-03
       N       E                     dE             d eps       ncg     rms          rms(c)
DAV:   1    -0.637051435116E+03    0.16274E-02   -0.99084E-02  9936   0.171E+00    0.162E-01
RMM:   2    -0.637055375277E+03   -0.39402E-02   -0.27081E-02 12345   0.472E-01    0.472E-01
RMM:   3    -0.637053662079E+03    0.17132E-02   -0.27104E-03 10599   0.196E-01    0.253E-01
RMM:   4    -0.637053389249E+03    0.27283E-03   -0.82410E-04 10750   0.907E-02    0.120E-01
RMM:   5    -0.637053375890E+03    0.13359E-04   -0.29812E-04  8963   0.600E-02    0.108E-01
RMM:   6    -0.637053296400E+03    0.79491E-04   -0.14737E-04  8425   0.354E-02    0.463E-02
RMM:   7    -0.637053309981E+03   -0.13581E-04   -0.84476E-05  7282   0.291E-02    0.672E-02
RMM:   8    -0.637053298327E+03    0.11654E-04   -0.56313E-05  6397   0.311E-02    0.561E-02
RMM:   9    -0.637053278742E+03    0.19585E-04   -0.30749E-05  5818   0.241E-02    0.163E-02
RMM:  10    -0.637053281107E+03   -0.23654E-05   -0.21340E-05  5741   0.168E-02
  20 F= -.63705328E+03 E0= -.63696970E+03  d E =-.220866E-03
       N       E                     dE             d eps       ncg     rms          rms(c)
DAV:   1    -0.637041216998E+03    0.12062E-01   -0.63251E-01  9816   0.432E+00    0.419E-01
RMM:   2    -0.637066579191E+03   -0.25362E-01   -0.17584E-01 12427   0.120E+00    0.118E+00
RMM:   3    -0.637055612212E+03    0.10967E-01   -0.17445E-02 10889   0.485E-01    0.649E-01
RMM:   4    -0.637053842068E+03    0.17701E-02   -0.51962E-03 11521   0.220E-01    0.317E-01
RMM:   5    -0.637053764324E+03    0.77744E-04   -0.18991E-03 10548   0.144E-01    0.289E-01
RMM:   6    -0.637053202761E+03    0.56156E-03   -0.97582E-04 10588   0.886E-02    0.114E-01
RMM:   7    -0.637053289060E+03   -0.86299E-04   -0.59829E-04 10472   0.660E-02    0.162E-01
RMM:   8    -0.637053188900E+03    0.10016E-03   -0.32224E-04  9576   0.636E-02    0.118E-01
RMM:   9    -0.637053107534E+03    0.81365E-04   -0.20059E-04  8883   0.445E-02    0.441E-02
RMM:  10    -0.637053121060E+03   -0.13525E-04   -0.12885E-04  7368   0.302E-02    0.595E-02
RMM:  11    -0.637053103953E+03    0.17107E-04   -0.55588E-05  6376   0.259E-02    0.158E-02
RMM:  12    -0.637053106549E+03   -0.25962E-05   -0.42068E-05  6229   0.157E-02
  21 F= -.63705311E+03 E0= -.63696948E+03  d E =-.463079E-04
       N       E                     dE             d eps       ncg     rms          rms(c)
DAV:   1    -0.637047813745E+03    0.52902E-02   -0.29705E-01  9888   0.295E+00    0.286E-01
RMM:   2    -0.637059548748E+03   -0.11735E-01   -0.82108E-02 12417   0.820E-01    0.798E-01
RMM:   3    -0.637054532032E+03    0.50167E-02   -0.81225E-03 10861   0.333E-01    0.445E-01
RMM:   4    -0.637053680322E+03    0.85171E-03   -0.23584E-03 11396   0.153E-01    0.214E-01
RMM:   5    -0.637053643254E+03    0.37068E-04   -0.84061E-04 10095   0.101E-01    0.197E-01
RMM:   6    -0.637053374777E+03    0.26848E-03   -0.41588E-04 10045   0.617E-02    0.780E-02
RMM:   7    -0.637053415652E+03   -0.40874E-04   -0.25625E-04  9090   0.469E-02    0.112E-01
RMM:   8    -0.637053372357E+03    0.43295E-04   -0.13087E-04  7772   0.449E-02    0.866E-02
RMM:   9    -0.637053327477E+03    0.44880E-04   -0.67604E-05  6623   0.326E-02    0.295E-02
RMM:  10    -0.637053335063E+03   -0.75867E-05   -0.47080E-05  6250   0.247E-02
  22 F= -.63705334E+03 E0= -.63696971E+03  d E =-.274822E-03
       N       E                     dE             d eps       ncg     rms          rms(c)
DAV:   1    -0.637052558508E+03    0.76897E-03   -0.36576E-02  9480   0.107E+00    0.501E-02
RMM:   2    -0.637053465311E+03   -0.90680E-03   -0.91239E-03 12666   0.250E-01    0.874E-02
RMM:   3    -0.637053458621E+03    0.66898E-05   -0.65068E-04  9282   0.805E-02    0.820E-02
RMM:   4    -0.637053444081E+03    0.14540E-04   -0.10289E-04  6901   0.378E-02    0.500E-02
RMM:   5    -0.637053429665E+03    0.14416E-04   -0.26010E-05  5722   0.259E-02    0.172E-02
RMM:   6    -0.637053430245E+03   -0.58001E-06   -0.11887E-05  5274   0.157E-02
  23 F= -.63705343E+03 E0= -.63696984E+03  d E =-.951814E-04
       N       E                     dE             d eps       ncg     rms          rms(c)
DAV:   1    -0.637052902089E+03    0.52758E-03   -0.24367E-02  9576   0.874E-01    0.380E-02
RMM:   2    -0.637053513757E+03   -0.61167E-03   -0.60801E-03 12570   0.206E-01    0.698E-02
RMM:   3    -0.637053506622E+03    0.71354E-05   -0.46931E-04  8561   0.683E-02    0.545E-02
RMM:   4    -0.637053507470E+03   -0.84825E-06   -0.86535E-05  7008   0.322E-02
  24 F= -.63705351E+03 E0= -.63696996E+03  d E =-.172407E-03
       N       E                     dE             d eps       ncg     rms          rms(c)
DAV:   1    -0.637053568241E+03   -0.61619E-04   -0.39102E-03 12672   0.321E-01    0.699E-02
RMM:   2    -0.637053938273E+03   -0.37003E-03   -0.11553E-03 10757   0.132E-01    0.194E-01
RMM:   3    -0.637053599385E+03    0.33889E-03   -0.25617E-04  8557   0.772E-02    0.877E-02
RMM:   4    -0.637053555851E+03    0.43534E-04   -0.62156E-05  7025   0.356E-02    0.394E-02
RMM:   5    -0.637053561626E+03   -0.57753E-05   -0.28539E-05  5717   0.249E-02
  25 F= -.63705356E+03 E0= -.63697001E+03  d E =-.541558E-04
       N       E                     dE             d eps       ncg     rms          rms(c)
DAV:   1    -0.637053724134E+03   -0.16828E-03   -0.33371E-02 12600   0.924E-01    0.205E-01
RMM:   2    -0.637056998228E+03   -0.32741E-02   -0.98505E-03 10967   0.392E-01    0.602E-01
RMM:   3    -0.637054130399E+03    0.28678E-02   -0.23476E-03 10408   0.220E-01    0.300E-01
RMM:   4    -0.637053617393E+03    0.51301E-03   -0.62760E-04 10196   0.940E-02    0.120E-01
RMM:   5    -0.637053649970E+03   -0.32578E-04   -0.29335E-04  9159   0.664E-02    0.141E-01
RMM:   6    -0.637053541955E+03    0.10802E-03   -0.16862E-04  9024   0.460E-02    0.714E-02
RMM:   7    -0.637053524372E+03    0.17583E-04   -0.81828E-05  7061   0.345E-02    0.512E-02
RMM:   8    -0.637053524345E+03    0.27256E-07   -0.47653E-05  6175   0.265E-02
  26 F= -.63705352E+03 E0= -.63696996E+03  d E =-.168748E-04
       N       E                     dE             d eps       ncg     rms          rms(c)
DAV:   1    -0.637053621299E+03   -0.96926E-04   -0.74257E-03 12672   0.429E-01    0.926E-02
RMM:   2    -0.637054345755E+03   -0.72446E-03   -0.20711E-03 10935   0.183E-01    0.299E-01
RMM:   3    -0.637053718837E+03    0.62692E-03   -0.51507E-04  9453   0.104E-01    0.145E-01
RMM:   4    -0.637053598682E+03    0.12015E-03   -0.12686E-04  8597   0.493E-02    0.528E-02
RMM:   5    -0.637053603332E+03   -0.46491E-05   -0.56963E-05  6555   0.326E-02
  27 F= -.63705360E+03 E0= -.63696998E+03  d E =-.958611E-04
       N       E                     dE             d eps       ncg     rms          rms(c)
DAV:   1    -0.637053615639E+03   -0.16957E-04   -0.24765E-03 12864   0.262E-01    0.717E-02
RMM:   2    -0.637054226236E+03   -0.61060E-03   -0.11084E-03 10478   0.130E-01    0.305E-01
RMM:   3    -0.637053655514E+03    0.57072E-03   -0.33395E-04  8336   0.876E-02    0.976E-02
RMM:   4    -0.637053587246E+03    0.68268E-04   -0.70849E-05  7114   0.372E-02    0.365E-02
RMM:   5    -0.637053588830E+03   -0.15833E-05   -0.26149E-05  5645   0.233E-02
  28 F= -.63705359E+03 E0= -.63697001E+03  d E =-.813594E-04
       N       E                     dE             d eps       ncg     rms          rms(c)
DAV:   1    -0.637053579869E+03    0.73776E-05   -0.32713E-04 12744   0.892E-02    0.322E-02
RMM:   2    -0.637053862770E+03   -0.28290E-03   -0.26497E-04  7932   0.641E-02    0.224E-01
RMM:   3    -0.637053581678E+03    0.28109E-03   -0.98852E-05  6903   0.500E-02    0.274E-02
RMM:   4    -0.637053574677E+03    0.70016E-05   -0.83852E-06  4564   0.143E-02
  29 F= -.63705357E+03 E0= -.63697000E+03  d E =-.672062E-04
       N       E                     dE             d eps       ncg     rms          rms(c)
DAV:   1    -0.637053577391E+03    0.42872E-05   -0.43077E-04 12768   0.102E-01    0.270E-02
RMM:   2    -0.637053644250E+03   -0.66859E-04   -0.15123E-04  7992   0.508E-02    0.912E-02
RMM:   3    -0.637053583133E+03    0.61117E-04   -0.41984E-05  6139   0.359E-02    0.389E-02
RMM:   4    -0.637053572846E+03    0.10287E-04   -0.88038E-06  4611   0.163E-02    0.119E-02
RMM:   5    -0.637053574262E+03   -0.14158E-05   -0.55284E-06  4483   0.131E-02
  30 F= -.63705357E+03 E0= -.63697000E+03  d E =-.667919E-04
       N       E                     dE             d eps       ncg     rms          rms(c)
DAV:   1    -0.637053530628E+03    0.42219E-04   -0.42031E-03  9672   0.355E-01    0.281E-02
RMM:   2    -0.637053669608E+03   -0.13898E-03   -0.10305E-03 12014   0.923E-02    0.851E-02
RMM:   3    -0.637053618572E+03    0.51036E-04   -0.10249E-04  6772   0.419E-02    0.370E-02
RMM:   4    -0.637053615409E+03    0.31629E-05   -0.22908E-05  5609   0.231E-02
  31 F= -.63705362E+03 E0= -.63697003E+03  d E =-.411467E-04
       N       E                     dE             d eps       ncg     rms          rms(c)
DAV:   1    -0.637053588019E+03    0.30553E-04   -0.30983E-03 10728   0.299E-01    0.359E-02
RMM:   2    -0.637053801043E+03   -0.21302E-03   -0.86021E-04 11052   0.875E-02    0.156E-01
RMM:   3    -0.637053650970E+03    0.15007E-03   -0.11201E-04  7135   0.497E-02    0.560E-02
RMM:   4    -0.637053633100E+03    0.17870E-04   -0.35210E-05  5938   0.252E-02    0.204E-02
RMM:   5    -0.637053635636E+03   -0.25361E-05   -0.14959E-05  5367   0.196E-02
  32 F= -.63705364E+03 E0= -.63697002E+03  d E =-.613735E-04
       N       E                     dE             d eps       ncg     rms          rms(c)
DAV:   1    -0.637053417738E+03    0.21536E-03   -0.11661E-02  9288   0.593E-01    0.512E-02
RMM:   2    -0.637053826611E+03   -0.40887E-03   -0.29960E-03 12846   0.157E-01    0.147E-01
RMM:   3    -0.637053666502E+03    0.16011E-03   -0.32128E-04  8337   0.660E-02    0.645E-02
RMM:   4    -0.637053655185E+03    0.11317E-04   -0.97520E-05  7574   0.339E-02    0.449E-02
RMM:   5    -0.637053652270E+03    0.29158E-05   -0.30888E-05  5723   0.249E-02
  33 F= -.63705365E+03 E0= -.63697000E+03  d E =-.780074E-04
       N       E                     dE             d eps       ncg     rms          rms(c)
DAV:   1    -0.637053658688E+03   -0.35026E-05   -0.60461E-03 12192   0.448E-01    0.899E-02
RMM:   2    -0.637054381252E+03   -0.72256E-03   -0.23130E-03 10984   0.180E-01    0.276E-01
RMM:   3    -0.637053773943E+03    0.60731E-03   -0.50177E-04  8863   0.949E-02    0.122E-01
RMM:   4    -0.637053685101E+03    0.88843E-04   -0.11479E-04  7789   0.453E-02    0.495E-02
RMM:   5    -0.637053688831E+03   -0.37305E-05   -0.46281E-05  6116   0.294E-02
  34 F= -.63705369E+03 E0= -.63697001E+03  d E =-.365614E-04
       N       E                     dE             d eps       ncg     rms          rms(c)
DAV:   1    -0.637053658084E+03    0.27017E-04   -0.92609E-03 12072   0.557E-01    0.115E-01
RMM:   2    -0.637054813998E+03   -0.11559E-02   -0.37676E-03 11166   0.225E-01    0.349E-01
RMM:   3    -0.637053838921E+03    0.97508E-03   -0.81267E-04  9489   0.120E-01    0.154E-01
RMM:   4    -0.637053684550E+03    0.15437E-03   -0.20632E-04  8946   0.579E-02    0.511E-02
RMM:   5    -0.637053701386E+03   -0.16836E-04   -0.77108E-05  6789   0.353E-02    0.788E-02
RMM:   6    -0.637053666510E+03    0.34876E-04   -0.36338E-05  5835   0.278E-02    0.369E-02
RMM:   7    -0.637053664031E+03    0.24788E-05   -0.25048E-05  5598   0.217E-02
  35 F= -.63705366E+03 E0= -.63696999E+03  d E =-.117618E-04
       N       E                     dE             d eps       ncg     rms          rms(c)
DAV:   1    -0.637053403999E+03    0.26251E-03   -0.36620E-02 11832   0.110E+00    0.215E-01
RMM:   2    -0.637057641218E+03   -0.42372E-02   -0.13843E-02 11074   0.441E-01    0.650E-01
RMM:   3    -0.637054202826E+03    0.34384E-02   -0.29677E-03  9981   0.226E-01    0.322E-01
RMM:   4    -0.637053641427E+03    0.56140E-03   -0.70332E-04  9997   0.988E-02    0.123E-01
RMM:   5    -0.637053628054E+03    0.13374E-04   -0.27859E-04  9227   0.618E-02    0.113E-01
RMM:   6    -0.637053557414E+03    0.70639E-04   -0.15168E-04  8797   0.418E-02    0.682E-02
RMM:   7    -0.637053535946E+03    0.21468E-04   -0.68017E-05  6928   0.300E-02    0.466E-02
RMM:   8    -0.637053542771E+03   -0.68246E-05   -0.46711E-05  6185   0.287E-02
  36 F= -.63705354E+03 E0= -.63696983E+03  d E =0.109499E-03
       N       E                     dE             d eps       ncg     rms          rms(c)
DAV:   1    -0.637053548737E+03   -0.12791E-04   -0.30342E-02 11808   0.996E-01    0.189E-01
RMM:   2    -0.637056868181E+03   -0.33194E-02   -0.11073E-02 11187   0.397E-01    0.587E-01
RMM:   3    -0.637054247417E+03    0.26208E-02   -0.23246E-03 10073   0.198E-01    0.305E-01
RMM:   4    -0.637053743027E+03    0.50439E-03   -0.57630E-04 10214   0.955E-02    0.112E-01
RMM:   5    -0.637053732080E+03    0.10947E-04   -0.23366E-04  9487   0.574E-02    0.102E-01
RMM:   6    -0.637053665869E+03    0.66211E-04   -0.11831E-04  8665   0.381E-02    0.553E-02
RMM:   7    -0.637053657969E+03    0.79002E-05   -0.45308E-05  6259   0.283E-02
  37 F= -.63705366E+03 E0= -.63697002E+03  d E =-.569937E-05
       N       E                     dE             d eps       ncg     rms          rms(c)
DAV:   1    -0.637053667967E+03   -0.20981E-05   -0.40980E-04 12840   0.120E-01    0.570E-02
RMM:   2    -0.637054374644E+03   -0.70668E-03   -0.77516E-04  9083   0.949E-02    0.332E-01
RMM:   3    -0.637053690472E+03    0.68417E-03   -0.28175E-04  7994   0.772E-02    0.706E-02
RMM:   4    -0.637053651162E+03    0.39310E-04   -0.34625E-05  6268   0.222E-02    0.141E-02
RMM:   5    -0.637053652064E+03   -0.90189E-06   -0.80692E-06  4531   0.168E-02
  38 F= -.63705365E+03 E0= -.63696999E+03  d E =0.206033E-06
       N       E                     dE             d eps       ncg     rms          rms(c)
DAV:   1    -0.637053652391E+03   -0.12295E-05   -0.17761E-05  6048   0.243E-02    0.130E-02
RMM:   2    -0.637053693217E+03   -0.40825E-04   -0.26880E-05  5836   0.234E-02    0.841E-02
RMM:   3    -0.637053654522E+03    0.38695E-04   -0.14801E-05  5547   0.210E-02    0.149E-02
RMM:   4    -0.637053652926E+03    0.15958E-05   -0.26471E-06  4457   0.667E-03
  39 F= -.63705365E+03 E0= -.63696999E+03  d E =-.656204E-06
       N       E                     dE             d eps       ncg     rms          rms(c)
DAV:   1    -0.637053653142E+03    0.13802E-05   -0.30609E-06  5328   0.112E-02    0.475E-03
RMM:   2    -0.637053658302E+03   -0.51607E-05   -0.38924E-06  4356   0.941E-03
  40 F= -.63705366E+03 E0= -.63696998E+03  d E =-.603252E-05
       N       E                     dE             d eps       ncg     rms          rms(c)
DAV:   1    -0.637053653833E+03   -0.69136E-06   -0.17221E-05  5376   0.212E-02    0.345E-03
RMM:   2    -0.637053656381E+03   -0.25477E-05   -0.20857E-06  4236   0.663E-03
  41 F= -.63705366E+03 E0= -.63696998E+03  d E =-.411088E-05
       N       E                     dE             d eps       ncg     rms          rms(c)
DAV:   1    -0.637053654228E+03   -0.39487E-06   -0.88402E-06  5376   0.160E-02    0.484E-03
RMM:   2    -0.637053659765E+03   -0.55371E-05   -0.29132E-06  4281   0.793E-03
  42 F= -.63705366E+03 E0= -.63696997E+03  d E =-.749517E-05
       N       E                     dE             d eps       ncg     rms          rms(c)
DAV:   1    -0.637053605567E+03    0.48661E-04   -0.30202E-03 10200   0.331E-01    0.237E-02
RMM:   2    -0.637053706821E+03   -0.10125E-03   -0.90269E-04 11359   0.783E-02    0.486E-02
RMM:   3    -0.637053684019E+03    0.22802E-04   -0.83137E-05  6266   0.346E-02    0.269E-02
RMM:   4    -0.637053682914E+03    0.11042E-05   -0.14395E-05  5072   0.199E-02
  43 F= -.63705368E+03 E0= -.63697001E+03  d E =-.231496E-04
       N       E                     dE             d eps       ncg     rms          rms(c)
DAV:   1    -0.637053659048E+03    0.24970E-04   -0.19562E-03 10512   0.260E-01    0.225E-02
RMM:   2    -0.637053747135E+03   -0.88087E-04   -0.56058E-04 10685   0.622E-02    0.837E-02
RMM:   3    -0.637053707135E+03    0.40000E-04   -0.54572E-05  6126   0.344E-02    0.359E-02
RMM:   4    -0.637053700889E+03    0.62459E-05   -0.17044E-05  5445   0.191E-02
  44 F= -.63705370E+03 E0= -.63697003E+03  d E =-.411245E-04
       N       E                     dE             d eps       ncg     rms          rms(c)
DAV:   1    -0.637053767586E+03   -0.60450E-04   -0.28856E-03 12168   0.285E-01    0.601E-02
RMM:   2    -0.637054050170E+03   -0.28258E-03   -0.93202E-04 10649   0.117E-01    0.182E-01
RMM:   3    -0.637053819942E+03    0.23023E-03   -0.18899E-04  7794   0.617E-02    0.101E-01
RMM:   4    -0.637053764688E+03    0.55254E-04   -0.51410E-05  6357   0.341E-02    0.353E-02
RMM:   5    -0.637053769556E+03   -0.48682E-05   -0.27650E-05  5605   0.264E-02
  45 F= -.63705377E+03 E0= -.63697016E+03  d E =-.686666E-04
       N       E                     dE             d eps       ncg     rms          rms(c)
DAV:   1    -0.637054017822E+03   -0.25313E-03   -0.25588E-02 11832   0.872E-01    0.210E-01
RMM:   2    -0.637057695772E+03   -0.36780E-02   -0.10638E-02 11001   0.409E-01    0.645E-01
RMM:   3    -0.637054415825E+03    0.32799E-02   -0.24888E-03  9933   0.216E-01    0.291E-01
RMM:   4    -0.637053924301E+03    0.49152E-03   -0.61221E-04 10112   0.992E-02    0.123E-01
RMM:   5    -0.637053937393E+03   -0.13092E-04   -0.25674E-04  8930   0.637E-02    0.133E-01
RMM:   6    -0.637053840314E+03    0.97079E-04   -0.16343E-04  8993   0.457E-02    0.736E-02
RMM:   7    -0.637053821503E+03    0.18811E-04   -0.67636E-05  6814   0.334E-02    0.547E-02
RMM:   8    -0.637053821572E+03   -0.69231E-07   -0.48511E-05  6223   0.270E-02
  46 F= -.63705382E+03 E0= -.63697024E+03  d E =-.120682E-03
       N       E                     dE             d eps       ncg     rms          rms(c)
DAV:   1    -0.637053808294E+03    0.13209E-04   -0.13841E-04 11088   0.649E-02    0.225E-02
RMM:   2    -0.637053928488E+03   -0.12019E-03   -0.10844E-04  7174   0.392E-02    0.138E-01
RMM:   3    -0.637053812793E+03    0.11569E-03   -0.43312E-05  6138   0.336E-02    0.219E-02
RMM:   4    -0.637053809588E+03    0.32053E-05   -0.70000E-06  4732   0.118E-02
  47 F= -.63705381E+03 E0= -.63697022E+03  d E =-.108698E-03
       N       E                     dE             d eps       ncg     rms          rms(c)
DAV:   1    -0.637053811358E+03    0.14350E-05   -0.42555E-05  8784   0.409E-02    0.863E-03
RMM:   2    -0.637053825840E+03   -0.14482E-04   -0.20371E-05  5654   0.215E-02    0.479E-02
RMM:   3    -0.637053813114E+03    0.12726E-04   -0.85190E-06  4649   0.168E-02    0.739E-03
RMM:   4    -0.637053813313E+03   -0.19902E-06   -0.30388E-06  4456   0.629E-03
  48 F= -.63705381E+03 E0= -.63697023E+03  d E =-.112424E-03
       N       E                     dE             d eps       ncg     rms          rms(c)
DAV:   1    -0.637053814246E+03   -0.11314E-05   -0.48181E-06  5712   0.144E-02    0.570E-03
RMM:   2    -0.637053819687E+03   -0.54412E-05   -0.58745E-06  4596   0.123E-02
  49 F= -.63705382E+03 E0= -.63697023E+03  d E =-.118797E-03
       N       E                     dE             d eps       ncg     rms          rms(c)
DAV:   1    -0.637053814585E+03   -0.33921E-06   -0.21425E-05  5376   0.240E-02    0.739E-03
RMM:   2    -0.637053829245E+03   -0.14660E-04   -0.76858E-06  5057   0.127E-02    0.496E-02
RMM:   3    -0.637053815636E+03    0.13608E-04   -0.63468E-06  4568   0.136E-02    0.116E-02
RMM:   4    -0.637053814618E+03    0.10182E-05   -0.10024E-06  3994   0.435E-03
  50 F= -.63705381E+03 E0= -.63697023E+03  d E =-.113729E-03
       N       E                     dE             d eps       ncg     rms          rms(c)
DAV:   1    -0.637053814807E+03    0.82952E-06   -0.94301E-07  5376   0.633E-03    0.199E-03
RMM:   2    -0.637053815462E+03   -0.65534E-06   -0.79600E-07  4021   0.457E-03
  51 F= -.63705382E+03 E0= -.63697023E+03  d E =-.114573E-03
       N       E                     dE             d eps       ncg     rms          rms(c)
DAV:   1    -0.637053753693E+03    0.61114E-04   -0.30048E-03  9960   0.324E-01    0.220E-02
RMM:   2    -0.637053860946E+03   -0.10725E-03   -0.90945E-04 10890   0.773E-02    0.536E-02
RMM:   3    -0.637053837757E+03    0.23189E-04   -0.81402E-05  6176   0.347E-02    0.297E-02
RMM:   4    -0.637053835310E+03    0.24471E-05   -0.14455E-05  5161   0.187E-02
  52 F= -.63705384E+03 E0= -.63697025E+03  d E =-.198475E-04
       N       E                     dE             d eps       ncg     rms          rms(c)
DAV:   1    -0.637053829639E+03    0.81174E-05   -0.78716E-04 12576   0.159E-01    0.203E-02
RMM:   2    -0.637053917618E+03   -0.87978E-04   -0.23377E-04  8390   0.467E-02    0.111E-01
RMM:   3    -0.637053848552E+03    0.69066E-04   -0.40140E-05  6010   0.320E-02    0.292E-02
RMM:   4    -0.637053842962E+03    0.55900E-05   -0.98870E-06  4851   0.149E-02
  53 F= -.63705384E+03 E0= -.63697026E+03  d E =-.275001E-04
       N       E                     dE             d eps       ncg     rms          rms(c)
DAV:   1    -0.637053895313E+03   -0.46761E-04   -0.29024E-03 12312   0.287E-01    0.603E-02
RMM:   2    -0.637054189873E+03   -0.29456E-03   -0.97461E-04 10644   0.120E-01    0.177E-01
RMM:   3    -0.637053946236E+03    0.24364E-03   -0.19910E-04  8052   0.650E-02    0.959E-02
RMM:   4    -0.637053895302E+03    0.50934E-04   -0.47368E-05  6323   0.328E-02    0.343E-02
RMM:   5    -0.637053896641E+03   -0.13385E-05   -0.23670E-05  5542   0.253E-02
  54 F= -.63705390E+03 E0= -.63697026E+03  d E =-.536785E-04
       N       E                     dE             d eps       ncg     rms          rms(c)
DAV:   1    -0.637054102197E+03   -0.20690E-03   -0.25991E-02 12336   0.878E-01    0.208E-01
RMM:   2    -0.637057781110E+03   -0.36789E-02   -0.10375E-02 10853   0.396E-01    0.642E-01
RMM:   3    -0.637054542338E+03    0.32388E-02   -0.24583E-03  9978   0.221E-01    0.299E-01
RMM:   4    -0.637054018592E+03    0.52375E-03   -0.58529E-04 10175   0.931E-02    0.120E-01
RMM:   5    -0.637054017497E+03    0.10955E-05   -0.23506E-04  9012   0.603E-02    0.121E-01
RMM:   6    -0.637053933840E+03    0.83657E-04   -0.14791E-04  8872   0.430E-02    0.688E-02
RMM:   7    -0.637053915206E+03    0.18634E-04   -0.56402E-05  6574   0.327E-02    0.515E-02
RMM:   8    -0.637053910542E+03    0.46635E-05   -0.42979E-05  6064   0.265E-02
  55 F= -.63705391E+03 E0= -.63697022E+03  d E =-.675801E-04
       N       E                     dE             d eps       ncg     rms          rms(c)
DAV:   1    -0.637053935098E+03   -0.19892E-04   -0.34670E-03 12144   0.315E-01    0.720E-02
RMM:   2    -0.637054417543E+03   -0.48245E-03   -0.13059E-03 10717   0.143E-01    0.245E-01
RMM:   3    -0.637053992198E+03    0.42535E-03   -0.32158E-04  8377   0.824E-02    0.108E-01
RMM:   4    -0.637053921058E+03    0.71139E-04   -0.69094E-05  7109   0.374E-02    0.408E-02
RMM:   5    -0.637053921330E+03   -0.27142E-06   -0.29535E-05  5701   0.265E-02
  56 F= -.63705392E+03 E0= -.63697030E+03  d E =-.783676E-04
       N       E                     dE             d eps       ncg     rms          rms(c)
DAV:   1    -0.637053934363E+03   -0.13304E-04   -0.27534E-03 12672   0.290E-01    0.742E-02
RMM:   2    -0.637054411189E+03   -0.47683E-03   -0.12392E-03 10447   0.135E-01    0.246E-01
RMM:   3    -0.637053988099E+03    0.42309E-03   -0.33283E-04  8430   0.878E-02    0.109E-01
RMM:   4    -0.637053912179E+03    0.75920E-04   -0.70173E-05  7122   0.361E-02    0.381E-02
RMM:   5    -0.637053915079E+03   -0.28999E-05   -0.28504E-05  5669   0.254E-02
  57 F= -.63705392E+03 E0= -.63697029E+03  d E =-.721171E-04
       N       E                     dE             d eps       ncg     rms          rms(c)
DAV:   1    -0.637053908467E+03    0.37120E-05   -0.33455E-04 12432   0.919E-02    0.239E-02
RMM:   2    -0.637054041127E+03   -0.13266E-03   -0.14244E-04  7668   0.462E-02    0.154E-01
RMM:   3    -0.637053913015E+03    0.12811E-03   -0.44912E-05  6224   0.351E-02    0.243E-02
RMM:   4    -0.637053907855E+03    0.51598E-05   -0.70697E-06  4420   0.130E-02
  58 F= -.63705391E+03 E0= -.63697026E+03  d E =-.648931E-04
       N       E                     dE             d eps       ncg     rms          rms(c)
DAV:   1    -0.637053915269E+03   -0.22537E-05   -0.35755E-04 12720   0.988E-02    0.269E-02
RMM:   2    -0.637053979445E+03   -0.64176E-04   -0.15565E-04  7886   0.492E-02    0.916E-02
RMM:   3    -0.637053923075E+03    0.56370E-04   -0.39970E-05  6096   0.351E-02    0.421E-02
RMM:   4    -0.637053911689E+03    0.11386E-04   -0.88620E-06  4616   0.157E-02    0.109E-02
RMM:   5    -0.637053912850E+03   -0.11618E-05   -0.53748E-06  4398   0.126E-02
  59 F= -.63705391E+03 E0= -.63697026E+03  d E =-.698881E-04
       N       E                     dE             d eps       ncg     rms          rms(c)
DAV:   1    -0.637053814189E+03    0.97499E-04   -0.51687E-03  9456   0.408E-01    0.254E-02
RMM:   2    -0.637053968249E+03   -0.15406E-03   -0.13722E-03 11512   0.950E-02    0.658E-02
RMM:   3    -0.637053941410E+03    0.26839E-04   -0.10911E-04  6590   0.412E-02    0.326E-02
RMM:   4    -0.637053939847E+03    0.15635E-05   -0.24322E-05  5733   0.213E-02
  60 F= -.63705394E+03 E0= -.63697029E+03  d E =-.269962E-04
       N       E                     dE             d eps       ncg     rms          rms(c)
DAV:   1    -0.637053902165E+03    0.39245E-04   -0.25430E-03 10272   0.280E-01    0.284E-02
RMM:   2    -0.637054097568E+03   -0.19540E-03   -0.73261E-04 10372   0.762E-02    0.159E-01
RMM:   3    -0.637053957020E+03    0.14055E-03   -0.95877E-05  6746   0.452E-02    0.333E-02
RMM:   4    -0.637053951446E+03    0.55741E-05   -0.24963E-05  5743   0.193E-02
  61 F= -.63705395E+03 E0= -.63697028E+03  d E =-.385960E-04
       N       E                     dE             d eps       ncg     rms          rms(c)
DAV:   1    -0.637053991186E+03   -0.34166E-04   -0.55608E-03 11904   0.410E-01    0.872E-02
RMM:   2    -0.637054601793E+03   -0.61061E-03   -0.20655E-03 10826   0.172E-01    0.252E-01
RMM:   3    -0.637054083772E+03    0.51802E-03   -0.44012E-04  8815   0.913E-02    0.127E-01
RMM:   4    -0.637053997860E+03    0.85912E-04   -0.10026E-04  7629   0.427E-02    0.522E-02
RMM:   5    -0.637053998912E+03   -0.10522E-05   -0.41557E-05  6061   0.289E-02
  62 F= -.63705400E+03 E0= -.63697038E+03  d E =-.474658E-04
       N       E                     dE             d eps       ncg     rms          rms(c)
DAV:   1    -0.637054166865E+03   -0.16900E-03   -0.49524E-02 11880   0.125E+00    0.294E-01
RMM:   2    -0.637061312626E+03   -0.71458E-02   -0.21647E-02 10967   0.565E-01    0.879E-01
RMM:   3    -0.637055107257E+03    0.62054E-02   -0.49557E-03 10028   0.306E-01    0.428E-01
RMM:   4    -0.637054068053E+03    0.10392E-02   -0.11945E-03 10547   0.135E-01    0.168E-01
RMM:   5    -0.637054073038E+03   -0.49853E-05   -0.46732E-04  9509   0.815E-02    0.170E-01
RMM:   6    -0.637053911534E+03    0.16150E-03   -0.29314E-04  9889   0.581E-02    0.921E-02
RMM:   7    -0.637053885784E+03    0.25750E-04   -0.11753E-04  7713   0.421E-02    0.741E-02
RMM:   8    -0.637053883780E+03    0.20039E-05   -0.84948E-05  7308   0.324E-02
  63 F= -.63705388E+03 E0= -.63697029E+03  d E =0.676666E-04
       N       E                     dE             d eps       ncg     rms          rms(c)
DAV:   1    -0.637054110691E+03   -0.22491E-03   -0.20783E-02 11880   0.795E-01    0.181E-01
RMM:   2    -0.637056889221E+03   -0.27785E-02   -0.84310E-03 11076   0.353E-01    0.556E-01
RMM:   3    -0.637054500128E+03    0.23891E-02   -0.19180E-03 10034   0.190E-01    0.275E-01
RMM:   4    -0.637054081159E+03    0.41897E-03   -0.47645E-04 10179   0.885E-02    0.106E-01
RMM:   5    -0.637054079061E+03    0.20975E-05   -0.19821E-04  9384   0.540E-02    0.106E-01
RMM:   6    -0.637054015637E+03    0.63424E-04   -0.10410E-04  8220   0.391E-02    0.627E-02
RMM:   7    -0.637054000004E+03    0.15632E-04   -0.43885E-05  6238   0.277E-02    0.474E-02
RMM:   8    -0.637053999099E+03    0.90500E-06   -0.33785E-05  5965   0.269E-02
  64 F= -.63705400E+03 E0= -.63697036E+03  d E =-.476531E-04
       N       E                     dE             d eps       ncg     rms          rms(c)
DAV:   1    -0.637054000881E+03   -0.87645E-06   -0.10462E-03 12432   0.186E-01    0.457E-02
RMM:   2    -0.637054222391E+03   -0.22151E-03   -0.49180E-04  9330   0.813E-02    0.165E-01
RMM:   3    -0.637054020948E+03    0.20144E-03   -0.12434E-04  7375   0.536E-02    0.667E-02
RMM:   4    -0.637053993951E+03    0.26997E-04   -0.25893E-05  5689   0.249E-02    0.269E-02
RMM:   5    -0.637053992537E+03    0.14132E-05   -0.10567E-05  4632   0.179E-02
  65 F= -.63705399E+03 E0= -.63697034E+03  d E =-.410911E-04
       N       E                     dE             d eps       ncg     rms          rms(c)
DAV:   1    -0.637053997785E+03   -0.38344E-05   -0.41800E-04 12216   0.113E-01    0.332E-02
RMM:   2    -0.637054114953E+03   -0.11717E-03   -0.23884E-04  8386   0.561E-02    0.126E-01
RMM:   3    -0.637054005169E+03    0.10978E-03   -0.66423E-05  6521   0.416E-02    0.443E-02
RMM:   4    -0.637053990849E+03    0.14320E-04   -0.14061E-05  5379   0.192E-02    0.134E-02
RMM:   5    -0.637053992304E+03   -0.14547E-05   -0.68094E-06  4423   0.138E-02
  66 F= -.63705399E+03 E0= -.63697035E+03  d E =-.408575E-04
       N       E                     dE             d eps       ncg     rms          rms(c)
DAV:   1    -0.637053987977E+03    0.28725E-05   -0.12848E-04 10200   0.611E-02    0.144E-02
RMM:   2    -0.637054021225E+03   -0.33248E-04   -0.53634E-05  6343   0.303E-02    0.716E-02
RMM:   3    -0.637053989600E+03    0.31625E-04   -0.17766E-05  5583   0.244E-02    0.185E-02
RMM:   4    -0.637053987322E+03    0.22781E-05   -0.31415E-06  4406   0.836E-03
  67 F= -.63705399E+03 E0= -.63697035E+03  d E =-.358752E-04
       N       E                     dE             d eps       ncg     rms          rms(c)
DAV:   1    -0.637053904257E+03    0.85342E-04   -0.46772E-03  9888   0.392E-01    0.382E-02
RMM:   2    -0.637054101957E+03   -0.19770E-03   -0.15054E-03 11681   0.108E-01    0.930E-02
RMM:   3    -0.637054023312E+03    0.78645E-04   -0.14507E-04  7038   0.465E-02    0.491E-02
RMM:   4    -0.637054011730E+03    0.11582E-04   -0.29601E-05  5716   0.265E-02    0.241E-02
RMM:   5    -0.637054012898E+03   -0.11683E-05   -0.14733E-05  5296   0.200E-02
  68 F= -.63705401E+03 E0= -.63697038E+03  d E =-.255770E-04
       N       E                     dE             d eps       ncg     rms          rms(c)
DAV:   1    -0.637053603298E+03    0.40843E-03   -0.19982E-02 10608   0.811E-01    0.792E-02
RMM:   2    -0.637054460929E+03   -0.85763E-03   -0.60859E-03 12298   0.227E-01    0.214E-01
RMM:   3    -0.637054085951E+03    0.37498E-03   -0.68532E-04  9471   0.945E-02    0.896E-02
RMM:   4    -0.637054052116E+03    0.33835E-04   -0.17185E-04  8637   0.445E-02    0.543E-02
RMM:   5    -0.637054054816E+03   -0.27002E-05   -0.51624E-05  6216   0.320E-02
  69 F= -.63705405E+03 E0= -.63697045E+03  d E =-.674946E-04
       N       E                     dE             d eps       ncg     rms          rms(c)
DAV:   1    -0.637052281794E+03    0.17703E-02   -0.79438E-02 10632   0.162E+00    0.155E-01
RMM:   2    -0.637055558478E+03   -0.32767E-02   -0.24170E-02 12451   0.446E-01    0.410E-01
RMM:   3    -0.637054215814E+03    0.13427E-02   -0.26940E-03 10541   0.183E-01    0.179E-01
RMM:   4    -0.637054079591E+03    0.13622E-03   -0.67465E-04 10694   0.754E-02    0.105E-01
RMM:   5    -0.637054078902E+03    0.68871E-06   -0.21694E-04  8048   0.571E-02    0.118E-01
RMM:   6    -0.637053984801E+03    0.94101E-04   -0.10783E-04  7375   0.384E-02    0.408E-02
RMM:   7    -0.637054025368E+03   -0.40567E-04   -0.11261E-04  7606   0.356E-02    0.894E-02
RMM:   8    -0.637053982892E+03    0.42476E-04   -0.47759E-05  6019   0.299E-02    0.333E-02
RMM:   9    -0.637053978749E+03    0.41431E-05   -0.34815E-05  6114   0.209E-02
  70 F= -.63705398E+03 E0= -.63697037E+03  d E =0.857247E-05
       N       E                     dE             d eps       ncg     rms          rms(c)
DAV:   1    -0.637053222399E+03    0.76049E-03   -0.38050E-02 10392   0.112E+00    0.104E-01
RMM:   2    -0.637054707395E+03   -0.14850E-02   -0.11570E-02 12585   0.303E-01    0.259E-01
RMM:   3    -0.637054145369E+03    0.56203E-03   -0.12014E-03 10219   0.122E-01    0.122E-01
RMM:   4    -0.637054085992E+03    0.59377E-04   -0.26024E-04  9594   0.554E-02    0.735E-02
RMM:   5    -0.637054083064E+03    0.29279E-05   -0.87104E-05  6799   0.385E-02
  71 F= -.63705408E+03 E0= -.63697048E+03  d E =-.957428E-04
       N       E                     dE             d eps       ncg     rms          rms(c)
DAV:   1    -0.637054032148E+03    0.53844E-04   -0.15395E-03 13776   0.228E-01    0.435E-02
RMM:   2    -0.637054356262E+03   -0.32411E-03   -0.54037E-04  9208   0.819E-02    0.227E-01
RMM:   3    -0.637054051472E+03    0.30479E-03   -0.13588E-04  7283   0.539E-02    0.462E-02
RMM:   4    -0.637054041529E+03    0.99430E-05   -0.26729E-05  5684   0.237E-02
  72 F= -.63705404E+03 E0= -.63697044E+03  d E =-.542080E-04
       N       E                     dE             d eps       ncg     rms          rms(c)
DAV:   1    -0.637054041122E+03    0.10351E-04   -0.17492E-04 12120   0.783E-02    0.265E-02
RMM:   2    -0.637054176254E+03   -0.13513E-03   -0.17155E-04  7919   0.462E-02    0.147E-01
RMM:   3    -0.637054045890E+03    0.13036E-03   -0.57669E-05  6527   0.380E-02    0.346E-02
RMM:   4    -0.637054037554E+03    0.83360E-05   -0.92914E-06  4799   0.137E-02
  73 F= -.63705404E+03 E0= -.63697042E+03  d E =0.397553E-05
       N       E                     dE             d eps       ncg     rms          rms(c)
DAV:   1    -0.637054037046E+03    0.88445E-05   -0.61311E-05  8664   0.475E-02    0.953E-03
RMM:   2    -0.637054060193E+03   -0.23148E-04   -0.30172E-05  5932   0.246E-02    0.630E-02
RMM:   3    -0.637054037992E+03    0.22202E-04   -0.10603E-05  5102   0.185E-02    0.739E-03
RMM:   4    -0.637054037978E+03    0.14043E-07   -0.30318E-06  4441   0.663E-03
  74 F= -.63705404E+03 E0= -.63697042E+03  d E =0.355177E-05
       N       E                     dE             d eps       ncg     rms          rms(c)
DAV:   1    -0.637054036231E+03    0.17610E-05   -0.19927E-04  9960   0.801E-02    0.553E-03
RMM:   2    -0.637054043057E+03   -0.68261E-05   -0.47161E-05  6145   0.208E-02
  75 F= -.63705404E+03 E0= -.63697043E+03  d E =-.152732E-05
