  64  64   0   0
  0.2218804E+02  0.1124000E-08  0.1124000E-08  0.1124000E-08  0.5000000E-15
  1.000000000000000E-004
  CAR 
 HECN                                    
     13.98663953    -60.95075443  301      7.44268289      1.00000000
    -60.951  0.0000E+00  0.0000E+00
    -60.701  0.0000E+00  0.0000E+00
    -60.451  0.0000E+00  0.0000E+00
    -60.201  0.0000E+00  0.0000E+00
    -59.952  0.0000E+00  0.0000E+00
    -59.702  0.0000E+00  0.0000E+00
    -59.452  0.0000E+00  0.0000E+00
    -59.202  0.0000E+00  0.0000E+00
    -58.952  0.0000E+00  0.0000E+00
    -58.703  0.0000E+00  0.0000E+00
    -58.453  0.0000E+00  0.0000E+00
    -58.203  0.0000E+00  0.0000E+00
    -57.953  0.3104E-09  0.7755E-10
    -57.703  0.1241E-02  0.3099E-03
    -57.454  0.2377E+00  0.5969E-01
    -57.204  0.2400E+00  0.1196E+00
    -56.954  0.1471E-02  0.1200E+00
    -56.704  0.5997E-09  0.1200E+00
    -56.455  0.0000E+00  0.1200E+00
    -56.205  0.0000E+00  0.1200E+00
    -55.955  0.0000E+00  0.1200E+00
    -55.705  0.0000E+00  0.1200E+00
    -55.455  0.0000E+00  0.1200E+00
    -55.206  0.0000E+00  0.1200E+00
    -54.956  0.0000E+00  0.1200E+00
    -54.706  0.0000E+00  0.1200E+00
    -54.456  0.0000E+00  0.1200E+00
    -54.206  0.0000E+00  0.1200E+00
    -53.957  0.0000E+00  0.1200E+00
    -53.707  0.0000E+00  0.1200E+00
    -53.457  0.0000E+00  0.1200E+00
    -53.207  0.0000E+00  0.1200E+00
    -52.957  0.0000E+00  0.1200E+00
    -52.708  0.0000E+00  0.1200E+00
    -52.458  0.0000E+00  0.1200E+00
    -52.208  0.0000E+00  0.1200E+00
    -51.958  0.0000E+00  0.1200E+00
    -51.708  0.0000E+00  0.1200E+00
    -51.459  0.0000E+00  0.1200E+00
    -51.209  0.0000E+00  0.1200E+00
    -50.959  0.0000E+00  0.1200E+00
    -50.709  0.7181E-11  0.1200E+00
    -50.460  0.1775E-03  0.1200E+00
    -50.210  0.6031E-01  0.1351E+00
    -49.960  0.1520E+00  0.1731E+00
    -49.710  0.3278E+00  0.2550E+00
    -49.460  0.2019E-01  0.2600E+00
    -49.211  0.6380E-06  0.2600E+00
    -48.961  0.0000E+00  0.2600E+00
    -48.711  0.0000E+00  0.2600E+00
    -48.461  0.0000E+00  0.2600E+00
    -48.211  0.0000E+00  0.2600E+00
    -47.962  0.0000E+00  0.2600E+00
    -47.712  0.0000E+00  0.2600E+00
    -47.462  0.0000E+00  0.2600E+00
    -47.212  0.0000E+00  0.2600E+00
    -46.962  0.0000E+00  0.2600E+00
    -46.713  0.0000E+00  0.2600E+00
    -46.463  0.0000E+00  0.2600E+00
    -46.213  0.0000E+00  0.2600E+00
    -45.963  0.0000E+00  0.2600E+00
    -45.713  0.0000E+00  0.2600E+00
    -45.464  0.0000E+00  0.2600E+00
    -45.214  0.0000E+00  0.2600E+00
    -44.964  0.0000E+00  0.2600E+00
    -44.714  0.0000E+00  0.2600E+00
    -44.465  0.0000E+00  0.2600E+00
    -44.215  0.0000E+00  0.2600E+00
    -43.965  0.0000E+00  0.2600E+00
    -43.715  0.0000E+00  0.2600E+00
    -43.465  0.0000E+00  0.2600E+00
    -43.216  0.0000E+00  0.2600E+00
    -42.966  0.0000E+00  0.2600E+00
    -42.716  0.0000E+00  0.2600E+00
    -42.466  0.0000E+00  0.2600E+00
    -42.216  0.6252E-08  0.2600E+00
    -41.967  0.3901E-02  0.2610E+00
    -41.717  0.1439E+00  0.2969E+00
    -41.467  0.9297E-01  0.3201E+00
    -41.217  0.1310E+00  0.3529E+00
    -40.967  0.1066E+00  0.3795E+00
    -40.718  0.4206E-01  0.3900E+00
    -40.468  0.4008E-01  0.4000E+00
    -40.218  0.1659E-04  0.4000E+00
    -39.968  0.6509E-13  0.4000E+00
    -39.718  0.0000E+00  0.4000E+00
    -39.469  0.0000E+00  0.4000E+00
    -39.219  0.0000E+00  0.4000E+00
    -38.969  0.0000E+00  0.4000E+00
    -38.719  0.0000E+00  0.4000E+00
    -38.470  0.0000E+00  0.4000E+00
    -38.220  0.0000E+00  0.4000E+00
    -37.970  0.0000E+00  0.4000E+00
    -37.720  0.0000E+00  0.4000E+00
    -37.470  0.0000E+00  0.4000E+00
    -37.221  0.0000E+00  0.4000E+00
    -36.971  0.0000E+00  0.4000E+00
    -36.721  0.0000E+00  0.4000E+00
    -36.471  0.0000E+00  0.4000E+00
    -36.221  0.0000E+00  0.4000E+00
    -35.972  0.0000E+00  0.4000E+00
    -35.722  0.0000E+00  0.4000E+00
    -35.472  0.0000E+00  0.4000E+00
    -35.222  0.0000E+00  0.4000E+00
    -34.972  0.0000E+00  0.4000E+00
    -34.723  0.0000E+00  0.4000E+00
    -34.473  0.0000E+00  0.4000E+00
    -34.223  0.0000E+00  0.4000E+00
    -33.973  0.0000E+00  0.4000E+00
    -33.724  0.0000E+00  0.4000E+00
    -33.474  0.0000E+00  0.4000E+00
    -33.224  0.0000E+00  0.4000E+00
    -32.974  0.0000E+00  0.4000E+00
    -32.724  0.0000E+00  0.4000E+00
    -32.475  0.0000E+00  0.4000E+00
    -32.225  0.0000E+00  0.4000E+00
    -31.975  0.4823E-10  0.4000E+00
    -31.725  0.6835E-03  0.4002E+00
    -31.475  0.3405E+00  0.4852E+00
    -31.226  0.9991E+00  0.7348E+00
    -30.976  0.1010E+00  0.7600E+00
    -30.726  0.8463E-05  0.7600E+00
    -30.476  0.1109E-13  0.7600E+00
    -30.226  0.0000E+00  0.7600E+00
    -29.977  0.0000E+00  0.7600E+00
    -29.727  0.0000E+00  0.7600E+00
    -29.477  0.0000E+00  0.7600E+00
    -29.227  0.0000E+00  0.7600E+00
    -28.977  0.0000E+00  0.7600E+00
    -28.728  0.0000E+00  0.7600E+00
    -28.478  0.0000E+00  0.7600E+00
    -28.228  0.0000E+00  0.7600E+00
    -27.978  0.0000E+00  0.7600E+00
    -27.729  0.0000E+00  0.7600E+00
    -27.479  0.0000E+00  0.7600E+00
    -27.229  0.8889E-17  0.7600E+00
    -26.979  0.1474E-06  0.7600E+00
    -26.729  0.1827E-01  0.7646E+00
    -26.480  0.2415E+00  0.8249E+00
    -26.230  0.8612E+00  0.1040E+01
    -25.980  0.5461E+00  0.1176E+01
    -25.730  0.1432E-01  0.1180E+01
    -25.480  0.1661E-06  0.1180E+01
    -25.231  0.0000E+00  0.1180E+01
    -24.981  0.0000E+00  0.1180E+01
    -24.731  0.0000E+00  0.1180E+01
    -24.481  0.0000E+00  0.1180E+01
    -24.231  0.0000E+00  0.1180E+01
    -23.982  0.1647E-07  0.1180E+01
    -23.732  0.5051E-02  0.1181E+01
    -23.482  0.1796E+00  0.1226E+01
    -23.232  0.4822E+00  0.1347E+01
    -22.982  0.2802E+00  0.1417E+01
    -22.733  0.4833E+00  0.1537E+01
    -22.483  0.1078E-01  0.1540E+01
    -22.233  0.2964E-07  0.1540E+01
    -21.983  0.0000E+00  0.1540E+01
    -21.734  0.0000E+00  0.1540E+01
    -21.484  0.0000E+00  0.1540E+01
    -21.234  0.0000E+00  0.1540E+01
    -20.984  0.0000E+00  0.1540E+01
    -20.734  0.3380E-10  0.1540E+01
    -20.485  0.4255E-03  0.1540E+01
    -20.235  0.1362E+00  0.1574E+01
    -19.985  0.3509E+00  0.1662E+01
    -19.735  0.2489E+00  0.1724E+01
    -19.485  0.4427E+00  0.1835E+01
    -19.236  0.2603E+00  0.1900E+01
    -18.986  0.1763E+00  0.1944E+01
    -18.736  0.6562E-01  0.1960E+01
    -18.486  0.1151E-04  0.1960E+01
    -18.236  0.2448E-13  0.1960E+01
    -17.987  0.0000E+00  0.1960E+01
    -17.737  0.0000E+00  0.1960E+01
    -17.487  0.0000E+00  0.1960E+01
    -17.237  0.0000E+00  0.1960E+01
    -16.987  0.0000E+00  0.1960E+01
    -16.738  0.0000E+00  0.1960E+01
    -16.488  0.0000E+00  0.1960E+01
    -16.238  0.0000E+00  0.1960E+01
    -15.988  0.0000E+00  0.1960E+01
    -15.739  0.0000E+00  0.1960E+01
    -15.489  0.0000E+00  0.1960E+01
    -15.239  0.0000E+00  0.1960E+01
    -14.989  0.0000E+00  0.1960E+01
    -14.739  0.0000E+00  0.1960E+01
    -14.490  0.0000E+00  0.1960E+01
    -14.240  0.0000E+00  0.1960E+01
    -13.990  0.0000E+00  0.1960E+01
    -13.740  0.0000E+00  0.1960E+01
    -13.490  0.0000E+00  0.1960E+01
    -13.241  0.0000E+00  0.1960E+01
    -12.991  0.0000E+00  0.1960E+01
    -12.741  0.0000E+00  0.1960E+01
    -12.491  0.0000E+00  0.1960E+01
    -12.241  0.0000E+00  0.1960E+01
    -11.992  0.0000E+00  0.1960E+01
    -11.742  0.0000E+00  0.1960E+01
    -11.492  0.0000E+00  0.1960E+01
    -11.242  0.0000E+00  0.1960E+01
    -10.992  0.0000E+00  0.1960E+01
    -10.743  0.0000E+00  0.1960E+01
    -10.493  0.0000E+00  0.1960E+01
    -10.243  0.0000E+00  0.1960E+01
     -9.993  0.0000E+00  0.1960E+01
     -9.744  0.0000E+00  0.1960E+01
     -9.494  0.0000E+00  0.1960E+01
     -9.244  0.0000E+00  0.1960E+01
     -8.994  0.1764E-11  0.1960E+01
     -8.744  0.2750E-04  0.1960E+01
     -8.495  0.2111E-01  0.1965E+01
     -8.245  0.5805E-01  0.1980E+01
     -7.995  0.2055E-01  0.1985E+01
     -7.745  0.1059E+00  0.2011E+01
     -7.495  0.2005E+00  0.2061E+01
     -7.246  0.2697E+00  0.2129E+01
     -6.996  0.2154E+00  0.2183E+01
     -6.746  0.1026E+00  0.2208E+01
     -6.496  0.4304E-01  0.2219E+01
     -6.246  0.3954E-02  0.2220E+01
     -5.997  0.2418E-06  0.2220E+01
     -5.747  0.1636E-15  0.2220E+01
     -5.497  0.0000E+00  0.2220E+01
     -5.247  0.1205E-08  0.2220E+01
     -4.998  0.5451E-03  0.2220E+01
     -4.748  0.4157E-01  0.2231E+01
     -4.498  0.4307E-01  0.2241E+01
     -4.248  0.9979E-01  0.2266E+01
     -3.998  0.1246E+00  0.2297E+01
     -3.749  0.1777E+00  0.2342E+01
     -3.499  0.2342E+00  0.2400E+01
     -3.249  0.2330E+00  0.2458E+01
     -2.999  0.2141E+00  0.2512E+01
     -2.749  0.2205E+00  0.2567E+01
     -2.500  0.1064E+00  0.2594E+01
     -2.250  0.2546E-01  0.2600E+01
     -2.000  0.4593E-03  0.2600E+01
     -1.750  0.5245E-08  0.2600E+01
     -1.500  0.0000E+00  0.2600E+01
     -1.251  0.0000E+00  0.2600E+01
     -1.001  0.0000E+00  0.2600E+01
     -0.751  0.0000E+00  0.2600E+01
     -0.501  0.1173E-12  0.2600E+01
     -0.251  0.5320E-05  0.2600E+01
     -0.002  0.4937E-02  0.2601E+01
      0.248  0.2800E-01  0.2608E+01
      0.498  0.1036E+00  0.2634E+01
      0.748  0.1170E+00  0.2663E+01
      0.997  0.1447E+00  0.2699E+01
      1.247  0.2368E+00  0.2759E+01
      1.497  0.3251E+00  0.2840E+01
      1.747  0.2871E+00  0.2912E+01
      1.997  0.3288E+00  0.2994E+01
      2.246  0.3471E+00  0.3080E+01
      2.496  0.4161E+00  0.3184E+01
      2.746  0.5577E+00  0.3324E+01
      2.996  0.5828E+00  0.3469E+01
      3.246  0.5996E+00  0.3619E+01
      3.495  0.6559E+00  0.3783E+01
      3.745  0.5873E+00  0.3930E+01
      3.995  0.5249E+00  0.4061E+01
      4.245  0.4481E+00  0.4173E+01
      4.495  0.4207E+00  0.4278E+01
      4.744  0.3047E+00  0.4354E+01
      4.994  0.2695E+00  0.4421E+01
      5.244  0.1908E+00  0.4469E+01
      5.494  0.1578E+00  0.4508E+01
      5.744  0.6940E-01  0.4525E+01
      5.993  0.1562E+00  0.4564E+01
      6.243  0.1804E+00  0.4610E+01
      6.493  0.1531E+00  0.4648E+01
      6.743  0.1858E+00  0.4694E+01
      6.992  0.1980E+00  0.4744E+01
      7.242  0.2013E+00  0.4794E+01
      7.492  0.1844E+00  0.4840E+01
      7.742  0.2645E+00  0.4906E+01
      7.992  0.3928E+00  0.5004E+01
      8.241  0.4319E+00  0.5112E+01
      8.491  0.4307E+00  0.5220E+01
      8.741  0.4774E+00  0.5339E+01
      8.991  0.5065E+00  0.5465E+01
      9.241  0.5016E+00  0.5591E+01
      9.490  0.5040E+00  0.5717E+01
      9.740  0.5108E+00  0.5844E+01
      9.990  0.4539E+00  0.5958E+01
     10.240  0.4285E+00  0.6065E+01
     10.490  0.3233E+00  0.6145E+01
     10.739  0.5818E-01  0.6160E+01
     10.989  0.2326E-03  0.6160E+01
     11.239  0.5100E-10  0.6160E+01
     11.489  0.0000E+00  0.6160E+01
     11.739  0.0000E+00  0.6160E+01
     11.988  0.0000E+00  0.6160E+01
     12.238  0.0000E+00  0.6160E+01
     12.488  0.0000E+00  0.6160E+01
     12.738  0.0000E+00  0.6160E+01
     12.987  0.0000E+00  0.6160E+01
     13.237  0.0000E+00  0.6160E+01
     13.487  0.0000E+00  0.6160E+01
     13.737  0.0000E+00  0.6160E+01
     13.987  0.0000E+00  0.6160E+01
