<?xml version="1.0" encoding="ISO-8859-1"?>
<modeling>
 <generator>
  <i name="program" type="string">vasp </i>
  <i name="version" type="string">6.4.3  </i>
  <i name="subversion" type="string">19Mar24 (build Sep 18 2024 11:30:23) complex                          parallel </i>
  <i name="platform" type="string">LinuxIFC </i>
  <i name="date" type="string">2026 07 03 </i>
  <i name="time" type="string">21:45:39 </i>
 </generator>
 <incar>
  <i type="string" name="SYSTEM">HECN</i>
  <i type="int" name="ISTART">     0</i>
  <i type="string" name="PREC">Normal</i>
  <i type="string" name="ALGO">Fast</i>
  <i type="int" name="ICHARG">     2</i>
  <i type="int" name="NELM">    60</i>
  <i type="int" name="IBRION">     2</i>
  <i name="EDIFF">      0.00001000</i>
  <i name="EDIFFG">     -0.01000000</i>
  <i type="int" name="NSW">   100</i>
  <i type="int" name="ISIF">     3</i>
  <i name="ENCUT">    400.00000000</i>
  <i name="POTIM">      0.50000000</i>
  <i type="logical" name="LREAL"> F  </i>
  <i type="int" name="ISMEAR">     0</i>
  <i name="SIGMA">      0.10000000</i>
  <i type="logical" name="LWAVE"> F  </i>
  <i type="logical" name="LCHARG"> F  </i>
 </incar>
 <primitive_cell>
  <structure name="primitive_cell" >
   <crystal>
    <varray name="basis" >
     <v>      11.23999977       0.00000000       0.00000000 </v>
     <v>       0.00000000      11.23999977       0.00000000 </v>
     <v>       0.00000000       0.00000000      11.23999977 </v>
    </varray>
    <i name="volume">   1420.03453724 </i>
    <varray name="rec_basis" >
     <v>       0.08896797       0.00000000       0.00000000 </v>
     <v>       0.00000000       0.08896797       0.00000000 </v>
     <v>       0.00000000       0.00000000       0.08896797 </v>
    </varray>
   </crystal>
   <varray name="positions" >
    <v>       0.00000000       0.00000000       0.00000000 </v>
    <v>       0.25000000       0.00000000       0.25000000 </v>
    <v>       0.25000000       0.50000000       0.25000000 </v>
    <v>       0.50000000       0.50000000       0.00000000 </v>
    <v>       0.50000000       0.25000000       0.75000004 </v>
    <v>       0.00000000       0.50000000       0.50000000 </v>
    <v>       0.50000000       0.75000004       0.75000004 </v>
    <v>       0.00000000       0.25000000       0.25000000 </v>
    <v>       0.75000004       0.75000004       0.00000000 </v>
    <v>       0.00000000       0.25000000       0.75000004 </v>
    <v>       0.75000004       0.25000000       0.50000000 </v>
    <v>       0.00000000       0.75000004       0.75000004 </v>
    <v>       0.25000000       0.50000000       0.75000004 </v>
    <v>       0.25000000       0.25000000       0.00000000 </v>
    <v>       0.50000000       0.25000000       0.25000000 </v>
    <v>       0.75000004       0.00000000       0.25000000 </v>
    <v>       0.75000004       0.25000000       0.00000000 </v>
    <v>       0.25000000       0.75000004       0.00000000 </v>
    <v>       0.25000000       0.25000000       0.50000000 </v>
    <v>       0.25000000       0.25000000       0.25000000 </v>
    <v>       0.25000000       0.00000000       0.00000000 </v>
    <v>       0.00000000       0.25000000       0.00000000 </v>
    <v>       0.75000004       0.25000000       0.25000000 </v>
    <v>       0.75000004       0.00000000       0.00000000 </v>
    <v>       0.50000000       0.00000000       0.25000000 </v>
    <v>       0.00000000       0.50000000       0.25000000 </v>
    <v>       0.50000000       0.75000004       0.00000000 </v>
    <v>       0.00000000       0.00000000       0.75000004 </v>
    <v>       0.75000004       0.25000000       0.75000004 </v>
    <v>       0.75000004       0.00000000       0.50000000 </v>
    <v>       0.50000000       0.25000000       0.50000000 </v>
    <v>       0.50000000       0.00000000       0.75000004 </v>
    <v>       0.00000000       0.00000000       0.25000000 </v>
    <v>       0.50000000       0.25000000       0.00000000 </v>
    <v>       0.25000000       0.75000004       0.25000000 </v>
    <v>       0.25000000       0.50000000       0.00000000 </v>
    <v>       0.00000000       0.75000004       0.00000000 </v>
    <v>       0.75000004       0.75000004       0.25000000 </v>
    <v>       0.75000004       0.50000000       0.00000000 </v>
    <v>       0.50000000       0.50000000       0.25000000 </v>
    <v>       0.25000000       0.25000000       0.75000004 </v>
    <v>       0.25000000       0.00000000       0.50000000 </v>
    <v>       0.00000000       0.25000000       0.50000000 </v>
    <v>       0.25000000       0.75000004       0.75000004 </v>
    <v>       0.25000000       0.50000000       0.50000000 </v>
    <v>       0.00000000       0.75000004       0.50000000 </v>
    <v>       0.00000000       0.50000000       0.75000004 </v>
    <v>       0.75000004       0.75000004       0.75000004 </v>
    <v>       0.75000004       0.50000000       0.50000000 </v>
    <v>       0.50000000       0.75000004       0.50000000 </v>
    <v>       0.50000000       0.50000000       0.75000004 </v>
    <v>       0.50000000       0.00000000       0.00000000 </v>
    <v>       0.00000000       0.50000000       0.00000000 </v>
    <v>       0.50000000       0.75000004       0.25000000 </v>
    <v>       0.25000000       0.00000000       0.75000004 </v>
    <v>       0.50000000       0.00000000       0.50000000 </v>
    <v>       0.75000004       0.00000000       0.75000004 </v>
    <v>       0.25000000       0.75000004       0.50000000 </v>
    <v>       0.00000000       0.75000004       0.25000000 </v>
    <v>       0.75000004       0.50000000       0.25000000 </v>
    <v>       0.00000000       0.00000000       0.50000000 </v>
    <v>       0.50000000       0.50000000       0.50000000 </v>
    <v>       0.75000004       0.50000000       0.75000004 </v>
    <v>       0.75000004       0.75000004       0.50000000 </v>
   </varray>
  </structure>
  <varray name="primitive_index" >
   <v type="int" >        1 </v>
   <v type="int" >        2 </v>
   <v type="int" >        3 </v>
   <v type="int" >        4 </v>
   <v type="int" >        5 </v>
   <v type="int" >        6 </v>
   <v type="int" >        7 </v>
   <v type="int" >        8 </v>
   <v type="int" >        9 </v>
   <v type="int" >       10 </v>
   <v type="int" >       11 </v>
   <v type="int" >       12 </v>
   <v type="int" >       13 </v>
   <v type="int" >       14 </v>
   <v type="int" >       15 </v>
   <v type="int" >       16 </v>
   <v type="int" >       17 </v>
   <v type="int" >       18 </v>
   <v type="int" >       19 </v>
   <v type="int" >       20 </v>
   <v type="int" >       21 </v>
   <v type="int" >       22 </v>
   <v type="int" >       23 </v>
   <v type="int" >       24 </v>
   <v type="int" >       25 </v>
   <v type="int" >       26 </v>
   <v type="int" >       27 </v>
   <v type="int" >       28 </v>
   <v type="int" >       29 </v>
   <v type="int" >       30 </v>
   <v type="int" >       31 </v>
   <v type="int" >       32 </v>
   <v type="int" >       33 </v>
   <v type="int" >       34 </v>
   <v type="int" >       35 </v>
   <v type="int" >       36 </v>
   <v type="int" >       37 </v>
   <v type="int" >       38 </v>
   <v type="int" >       39 </v>
   <v type="int" >       40 </v>
   <v type="int" >       41 </v>
   <v type="int" >       42 </v>
   <v type="int" >       43 </v>
   <v type="int" >       44 </v>
   <v type="int" >       45 </v>
   <v type="int" >       46 </v>
   <v type="int" >       47 </v>
   <v type="int" >       48 </v>
   <v type="int" >       49 </v>
   <v type="int" >       50 </v>
   <v type="int" >       51 </v>
   <v type="int" >       52 </v>
   <v type="int" >       53 </v>
   <v type="int" >       54 </v>
   <v type="int" >       55 </v>
   <v type="int" >       56 </v>
   <v type="int" >       57 </v>
   <v type="int" >       58 </v>
   <v type="int" >       59 </v>
   <v type="int" >       60 </v>
   <v type="int" >       61 </v>
   <v type="int" >       62 </v>
   <v type="int" >       63 </v>
   <v type="int" >       64 </v>
  </varray>
 </primitive_cell>
 <kpoints>
  <generation param="Gamma">
   <v type="int" name="divisions">       3        3        3 </v>
   <v name="usershift">      0.00000000       0.00000000       0.00000000 </v>
   <v name="genvec1">      0.33333333       0.00000000       0.00000000 </v>
   <v name="genvec2">      0.00000000       0.33333333       0.00000000 </v>
   <v name="genvec3">      0.00000000       0.00000000       0.33333333 </v>
   <v name="shift">      0.00000000       0.00000000       0.00000000 </v>
  </generation>
  <varray name="kpointlist" >
   <v>       0.00000000       0.00000000       0.00000000 </v>
   <v>       0.33333333       0.00000000       0.00000000 </v>
   <v>       0.00000000       0.33333333       0.00000000 </v>
   <v>       0.00000000       0.00000000       0.33333333 </v>
   <v>       0.33333333       0.33333333       0.00000000 </v>
   <v>       0.00000000       0.33333333       0.33333333 </v>
   <v>       0.33333333       0.00000000       0.33333333 </v>
   <v>      -0.33333333       0.33333333       0.00000000 </v>
   <v>      -0.33333333       0.00000000       0.33333333 </v>
   <v>       0.00000000      -0.33333333       0.33333333 </v>
   <v>       0.33333333       0.33333333       0.33333333 </v>
   <v>      -0.33333333       0.33333333       0.33333333 </v>
   <v>      -0.33333333      -0.33333333       0.33333333 </v>
   <v>       0.33333333      -0.33333333       0.33333333 </v>
  </varray>
  <varray name="weights" >
   <v>       0.03703704 </v>
   <v>       0.07407407 </v>
   <v>       0.07407407 </v>
   <v>       0.07407407 </v>
   <v>       0.07407407 </v>
   <v>       0.07407407 </v>
   <v>       0.07407407 </v>
   <v>       0.07407407 </v>
   <v>       0.07407407 </v>
   <v>       0.07407407 </v>
   <v>       0.07407407 </v>
   <v>       0.07407407 </v>
   <v>       0.07407407 </v>
   <v>       0.07407407 </v>
  </varray>
 </kpoints>
 <parameters>
  <separator name="general" >
   <i type="string" name="SYSTEM">HECN</i>
   <i type="logical" name="LCOMPAT"> F  </i>
  </separator>
  <separator name="electronic" >
   <i type="string" name="PREC">normal</i>
   <i name="ENMAX">    400.00000000</i>
   <i name="ENAUG">    644.87300000</i>
   <i name="EDIFF">      0.00001000</i>
   <i type="int" name="IALGO">    68</i>
   <i type="int" name="IWAVPR">    11</i>
   <i type="int" name="NBANDS">   308</i>
   <i type="int" name="NBANDSLOW">    -1</i>
   <i type="int" name="NBANDSHIGH">    -1</i>
   <i name="NELECT">    483.00000000</i>
   <i type="int" name="TURBO">     0</i>
   <i type="int" name="IRESTART">     0</i>
   <i type="int" name="NREBOOT">     0</i>
   <i type="int" name="NMIN">     0</i>
   <i name="EREF">      0.00000000</i>
   <separator name="electronic smearing" >
    <i type="int" name="ISMEAR">     0</i>
    <i name="SIGMA">      0.10000000</i>
    <i name="KSPACING">      0.50000000</i>
    <i type="logical" name="KGAMMA"> T  </i>
    <i type="logical" name="KBLOWUP"> T  </i>
   </separator>
   <separator name="electronic projectors" >
    <i type="logical" name="LREAL"> F  </i>
    <v name="ROPT">      0.00000000      0.00000000      0.00000000      0.00000000      0.00000000      0.00000000      0.00000000</v>
    <i type="int" name="LMAXPAW">  -100</i>
    <i type="int" name="LMAXMIX">     2</i>
    <i type="logical" name="NLSPLINE"> F  </i>
   </separator>
   <separator name="electronic startup" >
    <i type="int" name="ISTART">     0</i>
    <i type="int" name="ICHARG">     2</i>
    <i type="int" name="INIWAV">     1</i>
   </separator>
   <separator name="electronic spin" >
    <i type="int" name="ISPIN">     1</i>
    <i type="logical" name="LNONCOLLINEAR"> F  </i>
    <v name="MAGMOM">      1.00000000      1.00000000      1.00000000      1.00000000      1.00000000      1.00000000      1.00000000      1.00000000      1.00000000      1.00000000      1.00000000      1.00000000      1.00000000      1.00000000      1.00000000      1.00000000      1.00000000      1.00000000      1.00000000      1.00000000
      1.00000000      1.00000000      1.00000000      1.00000000      1.00000000      1.00000000      1.00000000      1.00000000      1.00000000      1.00000000      1.00000000      1.00000000      1.00000000      1.00000000      1.00000000      1.00000000      1.00000000      1.00000000      1.00000000      1.00000000
      1.00000000      1.00000000      1.00000000      1.00000000      1.00000000      1.00000000      1.00000000      1.00000000      1.00000000      1.00000000      1.00000000      1.00000000      1.00000000      1.00000000      1.00000000      1.00000000      1.00000000      1.00000000      1.00000000      1.00000000
      1.00000000      1.00000000      1.00000000      1.00000000</v>
    <i name="NUPDOWN">     -1.00000000</i>
    <i type="logical" name="LSORBIT"> F  </i>
    <v name="SAXIS">      0.00000000      0.00000000      1.00000000</v>
    <i type="logical" name="LSPIRAL"> F  </i>
    <v name="QSPIRAL">      0.00000000      0.00000000      0.00000000</v>
    <i type="logical" name="LZEROZ"> F  </i>
   </separator>
   <separator name="electronic exchange-correlation" >
    <i type="logical" name="LASPH"> F  </i>
   </separator>
   <separator name="electronic convergence" >
    <i type="int" name="NELM">    60</i>
    <i type="int" name="NELMDL">    -5</i>
    <i type="int" name="NELMIN">     2</i>
    <i name="ENINI">    400.00000000</i>
    <separator name="electronic convergence detail" >
     <i type="logical" name="LDIAG"> T  </i>
     <i type="logical" name="LSUBROT"> F  </i>
     <i name="WEIMIN">      0.00100000</i>
     <i name="EBREAK">      0.00000001</i>
     <i name="DEPER">      0.30000000</i>
     <i type="int" name="NRMM">     4</i>
     <i name="TIME">      0.40000000</i>
    </separator>
   </separator>
   <separator name="electronic mixer" >
    <i name="AMIX">      0.40000000</i>
    <i name="BMIX">      1.00000000</i>
    <i name="AMIN">      0.10000000</i>
    <i name="AMIX_MAG">      1.60000000</i>
    <i name="BMIX_MAG">      1.00000000</i>
    <separator name="electronic mixer details" >
     <i type="int" name="IMIX">     4</i>
     <i type="logical" name="MIXFIRST"> F  </i>
     <i type="int" name="MAXMIX">   -45</i>
     <i name="WC">    100.00000000</i>
     <i type="int" name="INIMIX">     1</i>
     <i type="int" name="MIXPRE">     1</i>
     <i type="int" name="MREMOVE">     5</i>
    </separator>
   </separator>
   <separator name="electronic dipolcorrection" >
    <i type="logical" name="LDIPOL"> F  </i>
    <i type="logical" name="LMONO"> F  </i>
    <i type="int" name="IDIPOL">     0</i>
    <i name="EPSILON">      1.00000000</i>
    <v name="DIPOL">   -100.00000000   -100.00000000   -100.00000000</v>
    <i name="EFIELD">      0.00000000</i>
    <i type="logical" name="LVACPOTAV"> F  </i>
   </separator>
  </separator>
  <separator name="grids" >
   <i type="int" name="NGX">    56</i>
   <i type="int" name="NGY">    56</i>
   <i type="int" name="NGZ">    56</i>
   <i type="int" name="NGXF">   112</i>
   <i type="int" name="NGYF">   112</i>
   <i type="int" name="NGZF">   112</i>
   <i type="logical" name="ADDGRID"> F  </i>
  </separator>
  <separator name="ionic" >
   <i type="int" name="NSW">   100</i>
   <i type="int" name="IBRION">     2</i>
   <i type="int" name="MDALGO">     0</i>
   <i type="int" name="ISIF">     3</i>
   <i name="PSTRESS">      0.00000000</i>
   <i name="EDIFFG">     -0.01000000</i>
   <i type="int" name="NFREE">     1</i>
   <i name="POTIM">      0.50000000</i>
   <i name="SMASS">     -3.00000000</i>
   <i name="SCALEE">      1.00000000</i>
  </separator>
  <separator name="ionic md" >
   <i name="TEBEG">      0.00010000</i>
   <i name="TEEND">      0.00010000</i>
   <i type="int" name="NBLOCK">     1</i>
   <i type="int" name="KBLOCK">   100</i>
   <i type="int" name="NPACO">   256</i>
   <i name="APACO">     10.00000000</i>
  </separator>
  <separator name="symmetry" >
   <i type="int" name="ISYM">     2</i>
   <i name="SYMPREC">      0.00001000</i>
  </separator>
  <separator name="dos" >
   <i type="int" name="LORBIT">     0</i>
   <v name="RWIGS">     -1.00000000     -1.00000000     -1.00000000     -1.00000000     -1.00000000     -1.00000000     -1.00000000</v>
   <i type="int" name="NEDOS">   301</i>
   <i name="EMIN">     10.00000000</i>
   <i name="EMAX">    -10.00000000</i>
   <i name="EFERMI">      0.00000000</i>
  </separator>
  <separator name="writing" >
   <i type="int" name="NWRITE">     2</i>
   <i type="logical" name="LWAVE"> F  </i>
   <i type="logical" name="LDOWNSAMPLE"> F  </i>
   <i type="logical" name="LCHARG"> F  </i>
   <i type="logical" name="LPARD"> F  </i>
   <i type="logical" name="LVTOT"> F  </i>
   <i type="logical" name="LVHAR"> F  </i>
   <i type="logical" name="LELF"> F  </i>
   <i type="logical" name="LOPTICS"> F  </i>
   <v name="STM">      0.00000000      0.00000000      0.00000000      0.00000000      0.00000000      0.00000000      0.00000000</v>
  </separator>
  <separator name="performance" >
   <i type="int" name="NPAR">    28</i>
   <i type="int" name="NSIM">     4</i>
   <i type="int" name="NBLK">    -1</i>
   <i type="logical" name="LPLANE"> T  </i>
   <i type="logical" name="LSCALAPACK"> T  </i>
   <i type="logical" name="LSCAAWARE"> F  </i>
   <i type="logical" name="LSCALU"> F  </i>
   <i type="logical" name="LASYNC"> F  </i>
   <i type="logical" name="LORBITALREAL"> F  </i>
  </separator>
  <separator name="miscellaneous" >
   <i type="int" name="IDIOT">     3</i>
   <i type="int" name="PHON_NSTRUCT">    -1</i>
   <i type="logical" name="LMUSIC"> F  </i>
   <v name="POMASS">     47.88000000     95.94000000    178.49000000     14.00100000     12.01100000     91.22400000     50.94100000</v>
   <v name="DARWINR">      0.00000000      0.00000000      0.00000000      0.00000000      0.00000000      0.00000000      0.00000000</v>
   <v name="DARWINV">      1.00000000      1.00000000      1.00000000      1.00000000      1.00000000      1.00000000      1.00000000</v>
   <i type="logical" name="LCORR"> T  </i>
  </separator>
  <i type="logical" name="GGA_COMPAT"> T  </i>
  <i type="logical" name="LBERRY"> F  </i>
  <i type="int" name="ICORELEVEL">     0</i>
  <i type="logical" name="LDAU"> F  </i>
  <i type="int" name="I_CONSTRAINED_M">     0</i>
  <separator name="electronic exchange-correlation" >
   <i type="string" name="GGA    ">PE</i>
   <i type="string" name="XC_C">1</i>
   <i type="int" name="VOSKOWN">     0</i>
   <i type="logical" name="LHFCALC"> F  </i>
   <i type="string" name="PRECFOCK"></i>
   <i type="logical" name="LSYMGRAD"> F  </i>
   <i type="logical" name="LHFONE"> F  </i>
   <i type="logical" name="LRHFCALC"> F  </i>
   <i type="logical" name="LTHOMAS"> F  </i>
   <i type="logical" name="LMODELHF"> F  </i>
   <i type="logical" name="LFOCKACE"> F  </i>
   <i name="ENCUT4O">     -1.00000000</i>
   <i type="int" name="EXXOEP">     0</i>
   <i type="int" name="FOURORBIT">     0</i>
   <i name="AEXX">      0.00000000</i>
   <i name="HFALPHA">      0.00000000</i>
   <i name="MCALPHA">      0.00000000</i>
   <i name="ALDAX">      1.00000000</i>
   <i name="AGGAX">      1.00000000</i>
   <i name="AMGGAX">      1.00000000</i>
   <i name="ALDAC">      1.00000000</i>
   <i name="AGGAC">      1.00000000</i>
   <i name="AMGGAC">      1.00000000</i>
   <i type="int" name="NKREDX">     1</i>
   <i type="int" name="NKREDY">     1</i>
   <i type="int" name="NKREDZ">     1</i>
   <i type="logical" name="SHIFTRED"> F  </i>
   <i type="logical" name="ODDONLY"> F  </i>
   <i type="logical" name="EVENONLY"> F  </i>
   <i type="int" name="LMAXFOCK">     0</i>
   <i type="int" name="NMAXFOCKAE">     0</i>
   <i type="logical" name="LFOCKAEDFT"> F  </i>
   <i name="HFSCREEN">      0.00000000</i>
   <i name="HFSCREENC">      0.00000000</i>
   <i type="int" name="NBANDSGWLOW">     0</i>
  </separator>
  <separator name="vdW DFT" >
   <i type="logical" name="LUSE_VDW"> F  </i>
   <i type="int" name="IVDW_NL">    -1</i>
   <i type="logical" name="LSPIN_VDW"> F  </i>
   <i name="ZAB_VDW">     -0.84910000</i>
   <i name="GAMMA_VDW">      1.39626340</i>
   <i name="ALPHA_VDW">      0.00000000</i>
   <i name="PARAM1">      0.12340000</i>
   <i name="PARAM2">      1.00000000</i>
   <i name="BPARAM">      6.30000000</i>
   <i name="CPARAM">      0.00930000</i>
  </separator>
  <separator name="model GW" >
   <i type="int" name="MODEL_GW">     0</i>
   <i name="MODEL_EPS0">     13.31282379</i>
   <i name="MODEL_ALPHA">      1.00000000</i>
  </separator>
  <separator name="linear response parameters" >
   <i type="logical" name="LEPSILON"> F  </i>
   <i type="logical" name="LRPA"> F  </i>
   <i type="logical" name="LNABLA"> F  </i>
   <i type="logical" name="LVEL"> F  </i>
   <i name="CSHIFT">      0.10000000</i>
   <i name="OMEGAMAX">     -1.00000000</i>
   <i name="DEG_THRESHOLD">      0.00200000</i>
   <i name="RTIME">     -0.10000000</i>
   <i name="WPLASMAI">      0.00000000</i>
   <v name="DFIELD">      0.00000000      0.00000000      0.00000000</v>
   <v name="WPLASMA">      0.00000000      0.00000000      0.00000000      0.00000000      0.00000000      0.00000000      0.00000000      0.00000000      0.00000000</v>
  </separator>
  <separator name="orbital magnetization" >
   <i type="logical" name="NUCIND"> F  </i>
   <v name="MAGPOS">      0.00000000      0.00000000      0.00000000</v>
   <i type="logical" name="LNICSALL"> T  </i>
   <i type="logical" name="ORBITALMAG"> F  </i>
   <i type="logical" name="LMAGBLOCH"> F  </i>
   <i type="logical" name="LCHIMAG"> F  </i>
   <i type="logical" name="LGAUGE"> T  </i>
   <i type="int" name="MAGATOM">     0</i>
   <v name="MAGDIPOL">      0.00000000      0.00000000      0.00000000</v>
   <v name="AVECCONST">      0.00000000      0.00000000      0.00000000</v>
  </separator>
  <separator name="response functions" >
   <i type="logical" name="LALL_IN_ONE"> F  </i>
   <i type="int" name="IALL_IN_ONE">    -1</i>
   <i type="int" name="NBANDS_WAVE">    -1</i>
   <i type="logical" name="LFINITE_TEMPERATURE"> F  </i>
   <i type="logical" name="LADDER"> F  </i>
   <i type="logical" name="LRPAFORCE"> F  </i>
   <i type="logical" name="LFXC"> F  </i>
   <i type="logical" name="LHARTREE"> T  </i>
   <i type="int" name="IBSE">     0</i>
   <v type="int" name="KPOINT">    -1     0     0     0</v>
   <i type="logical" name="LTCTC"> F  </i>
   <i type="logical" name="LTCTE"> F  </i>
   <i type="logical" name="LTETE"> F  </i>
   <i type="logical" name="LTRIPLET"> F  </i>
   <i type="logical" name="LFXCEPS"> F  </i>
   <i type="logical" name="LFXHEG"> F  </i>
   <i type="int" name="NATURALO">     2</i>
   <i type="logical" name="LHOLEGF"> F  </i>
   <i type="logical" name="L2ORDER"> F  </i>
   <i type="logical" name="LDMP1"> F  </i>
   <i type="logical" name="LMP2LT"> F  </i>
   <i type="logical" name="LSMP2LT"> F  </i>
   <i type="logical" name="LGWLF"> F  </i>
   <i name="ENCUTGW">     -1.60000002</i>
   <i name="ENCUTGWSOFT">     -1.60000002</i>
   <i name="ENCUTLF">     -1.00000000</i>
   <i type="logical" name="ESF_SPLINES"> F  </i>
   <i name="ESF_CONV">      0.01000000</i>
   <i type="int" name="ESF_NINTER">    15</i>
   <i type="int" name="LMAXMP2">    -1</i>
   <i name="SCISSOR">      0.00000000</i>
   <i type="int" name="NOMEGA">     0</i>
   <i type="int" name="NOMEGAR">     0</i>
   <i type="int" name="NBANDSGW">    -1</i>
   <i type="int" name="NBANDSO">    -1</i>
   <i type="int" name="NBANDSV">    -1</i>
   <i type="int" name="NELMGW">     1</i>
   <i type="int" name="NELMHF">     1</i>
   <i type="int" name="DIM">     3</i>
   <i type="int" name="IESPILON">     4</i>
   <i type="int" name="ANTIRES">     0</i>
   <i name="OMEGAMAX">    -30.00000000</i>
   <i name="OMEGAMIN">    -30.00000000</i>
   <i name="OMEGATL">   -200.00000000</i>
   <i type="int" name="OMEGAGRID">     0</i>
   <i name="CSHIFT">     -0.10000000</i>
   <i type="logical" name="LSELFENERGY"> F  </i>
   <i type="logical" name="LSPECTRAL"> F  </i>
   <i type="logical" name="LSPECTRALGW"> F  </i>
   <i type="logical" name="LSINGLES"> F  </i>
   <i type="logical" name="LFERMIGW"> F  </i>
   <i type="logical" name="ODDONLYGW"> F  </i>
   <i type="logical" name="EVENONLYGW"> F  </i>
   <i type="int" name="NKREDLFX">     1</i>
   <i type="int" name="NKREDLFY">     1</i>
   <i type="int" name="NKREDLFZ">     1</i>
   <i type="int" name="MAXMEM">  2800</i>
   <i type="int" name="TELESCOPE">     0</i>
   <i type="int" name="NTAUPAR">    -1</i>
   <i type="int" name="NOMEGAPAR">    -1</i>
   <i name="DAMP_NEWTON">      0.80000001</i>
   <i name="LAMBDA">      1.00000000</i>
  </separator>
  <separator name="External order field" >
   <i name="OFIELD_KAPPA">      0.00000000</i>
   <v name="OFIELD_K">      0.00000000      0.00000000      0.00000000</v>
   <i name="OFIELD_Q6_NEAR">      0.00000000</i>
   <i name="OFIELD_Q6_FAR">      0.00000000</i>
   <i name="OFIELD_A">      0.00000000</i>
  </separator>
  <separator name="optional k-points parameters" >
   <i type="int" name="KPOINTS_OPT_MODE">     1</i>
   <i type="logical" name="LKPOINTS_OPT"> F  </i>
  </separator>
  <separator name="solvation model" >
   <i type="logical" name="LSOL"> F  </i>
  </separator>
 </parameters>
 <atominfo>
  <atoms>      64 </atoms>
  <types>       7 </types>
  <array name="atoms" >
   <dimension dim="1">ion</dimension>
   <field type="string">element</field>
   <field type="int">atomtype</field>
   <set>
    <rc><c>Ti</c><c>   1</c></rc>
    <rc><c>Ti</c><c>   1</c></rc>
    <rc><c>Ti</c><c>   1</c></rc>
    <rc><c>Ti</c><c>   1</c></rc>
    <rc><c>Ti</c><c>   1</c></rc>
    <rc><c>Ti</c><c>   1</c></rc>
    <rc><c>Ti</c><c>   1</c></rc>
    <rc><c>Mo</c><c>   2</c></rc>
    <rc><c>Mo</c><c>   2</c></rc>
    <rc><c>Mo</c><c>   2</c></rc>
    <rc><c>Mo</c><c>   2</c></rc>
    <rc><c>Mo</c><c>   2</c></rc>
    <rc><c>Mo</c><c>   2</c></rc>
    <rc><c>Hf</c><c>   3</c></rc>
    <rc><c>Hf</c><c>   3</c></rc>
    <rc><c>Hf</c><c>   3</c></rc>
    <rc><c>Hf</c><c>   3</c></rc>
    <rc><c>Hf</c><c>   3</c></rc>
    <rc><c>Hf</c><c>   3</c></rc>
    <rc><c>N </c><c>   4</c></rc>
    <rc><c>N </c><c>   4</c></rc>
    <rc><c>N </c><c>   4</c></rc>
    <rc><c>N </c><c>   4</c></rc>
    <rc><c>N </c><c>   4</c></rc>
    <rc><c>N </c><c>   4</c></rc>
    <rc><c>N </c><c>   4</c></rc>
    <rc><c>N </c><c>   4</c></rc>
    <rc><c>N </c><c>   4</c></rc>
    <rc><c>N </c><c>   4</c></rc>
    <rc><c>N </c><c>   4</c></rc>
    <rc><c>N </c><c>   4</c></rc>
    <rc><c>N </c><c>   4</c></rc>
    <rc><c>C </c><c>   5</c></rc>
    <rc><c>C </c><c>   5</c></rc>
    <rc><c>C </c><c>   5</c></rc>
    <rc><c>C </c><c>   5</c></rc>
    <rc><c>C </c><c>   5</c></rc>
    <rc><c>C </c><c>   5</c></rc>
    <rc><c>C </c><c>   5</c></rc>
    <rc><c>C </c><c>   5</c></rc>
    <rc><c>C </c><c>   5</c></rc>
    <rc><c>C </c><c>   5</c></rc>
    <rc><c>C </c><c>   5</c></rc>
    <rc><c>C </c><c>   5</c></rc>
    <rc><c>C </c><c>   5</c></rc>
    <rc><c>C </c><c>   5</c></rc>
    <rc><c>C </c><c>   5</c></rc>
    <rc><c>C </c><c>   5</c></rc>
    <rc><c>C </c><c>   5</c></rc>
    <rc><c>C </c><c>   5</c></rc>
    <rc><c>C </c><c>   5</c></rc>
    <rc><c>Zr</c><c>   6</c></rc>
    <rc><c>Zr</c><c>   6</c></rc>
    <rc><c>Zr</c><c>   6</c></rc>
    <rc><c>Zr</c><c>   6</c></rc>
    <rc><c>Zr</c><c>   6</c></rc>
    <rc><c>Zr</c><c>   6</c></rc>
    <rc><c>Zr</c><c>   6</c></rc>
    <rc><c>V </c><c>   7</c></rc>
    <rc><c>V </c><c>   7</c></rc>
    <rc><c>V </c><c>   7</c></rc>
    <rc><c>V </c><c>   7</c></rc>
    <rc><c>V </c><c>   7</c></rc>
    <rc><c>V </c><c>   7</c></rc>
   </set>
  </array>
  <array name="atomtypes" >
   <dimension dim="1">type</dimension>
   <field type="int">atomspertype</field>
   <field type="string">element</field>
   <field>mass</field>
   <field>valence</field>
   <field type="string">pseudopotential</field>
   <set>
    <rc><c>   7</c><c>Ti</c><c>     47.88000000</c><c>     12.00000000</c><c> PAW_PBE Ti_sv 07Sep2000                </c></rc>
    <rc><c>   6</c><c>Mo</c><c>     95.94000000</c><c>      6.00000000</c><c> PAW_PBE Mo 08Apr2002                   </c></rc>
    <rc><c>   6</c><c>Hf</c><c>    178.49000000</c><c>     10.00000000</c><c> PAW_PBE Hf_pv 06Sep2000                </c></rc>
    <rc><c>  13</c><c>N </c><c>     14.00100000</c><c>      5.00000000</c><c> PAW_PBE N 08Apr2002                    </c></rc>
    <rc><c>  19</c><c>C </c><c>     12.01100000</c><c>      4.00000000</c><c> PAW_PBE C 08Apr2002                    </c></rc>
    <rc><c>   7</c><c>Zr</c><c>     91.22400000</c><c>     12.00000000</c><c> PAW_PBE Zr_sv 07Sep2000                </c></rc>
    <rc><c>   6</c><c>V </c><c>     50.94100000</c><c>     13.00000000</c><c> PAW_PBE V_sv 07Sep2000                 </c></rc>
   </set>
  </array>
 </atominfo>
 <structure name="initialpos" >
  <crystal>
   <varray name="basis" >
    <v>      11.23999977       0.00000000       0.00000000 </v>
    <v>       0.00000000      11.23999977       0.00000000 </v>
    <v>       0.00000000       0.00000000      11.23999977 </v>
   </varray>
   <i name="volume">   1420.03453724 </i>
   <varray name="rec_basis" >
    <v>       0.08896797       0.00000000       0.00000000 </v>
    <v>       0.00000000       0.08896797       0.00000000 </v>
    <v>       0.00000000       0.00000000       0.08896797 </v>
   </varray>
  </crystal>
  <varray name="positions" >
   <v>       0.00000000       0.00000000       0.00000000 </v>
   <v>       0.25000000       0.00000000       0.25000000 </v>
   <v>       0.25000000       0.50000000       0.25000000 </v>
   <v>       0.50000000       0.50000000       0.00000000 </v>
   <v>       0.50000000       0.25000000       0.75000004 </v>
   <v>       0.00000000       0.50000000       0.50000000 </v>
   <v>       0.50000000       0.75000004       0.75000004 </v>
   <v>       0.00000000       0.25000000       0.25000000 </v>
   <v>       0.75000004       0.75000004       0.00000000 </v>
   <v>       0.00000000       0.25000000       0.75000004 </v>
   <v>       0.75000004       0.25000000       0.50000000 </v>
   <v>       0.00000000       0.75000004       0.75000004 </v>
   <v>       0.25000000       0.50000000       0.75000004 </v>
   <v>       0.25000000       0.25000000       0.00000000 </v>
   <v>       0.50000000       0.25000000       0.25000000 </v>
   <v>       0.75000004       0.00000000       0.25000000 </v>
   <v>       0.75000004       0.25000000       0.00000000 </v>
   <v>       0.25000000       0.75000004       0.00000000 </v>
   <v>       0.25000000       0.25000000       0.50000000 </v>
   <v>       0.25000000       0.25000000       0.25000000 </v>
   <v>       0.25000000       0.00000000       0.00000000 </v>
   <v>       0.00000000       0.25000000       0.00000000 </v>
   <v>       0.75000004       0.25000000       0.25000000 </v>
   <v>       0.75000004       0.00000000       0.00000000 </v>
   <v>       0.50000000       0.00000000       0.25000000 </v>
   <v>       0.00000000       0.50000000       0.25000000 </v>
   <v>       0.50000000       0.75000004       0.00000000 </v>
   <v>       0.00000000       0.00000000       0.75000004 </v>
   <v>       0.75000004       0.25000000       0.75000004 </v>
   <v>       0.75000004       0.00000000       0.50000000 </v>
   <v>       0.50000000       0.25000000       0.50000000 </v>
   <v>       0.50000000       0.00000000       0.75000004 </v>
   <v>       0.00000000       0.00000000       0.25000000 </v>
   <v>       0.50000000       0.25000000       0.00000000 </v>
   <v>       0.25000000       0.75000004       0.25000000 </v>
   <v>       0.25000000       0.50000000       0.00000000 </v>
   <v>       0.00000000       0.75000004       0.00000000 </v>
   <v>       0.75000004       0.75000004       0.25000000 </v>
   <v>       0.75000004       0.50000000       0.00000000 </v>
   <v>       0.50000000       0.50000000       0.25000000 </v>
   <v>       0.25000000       0.25000000       0.75000004 </v>
   <v>       0.25000000       0.00000000       0.50000000 </v>
   <v>       0.00000000       0.25000000       0.50000000 </v>
   <v>       0.25000000       0.75000004       0.75000004 </v>
   <v>       0.25000000       0.50000000       0.50000000 </v>
   <v>       0.00000000       0.75000004       0.50000000 </v>
   <v>       0.00000000       0.50000000       0.75000004 </v>
   <v>       0.75000004       0.75000004       0.75000004 </v>
   <v>       0.75000004       0.50000000       0.50000000 </v>
   <v>       0.50000000       0.75000004       0.50000000 </v>
   <v>       0.50000000       0.50000000       0.75000004 </v>
   <v>       0.50000000       0.00000000       0.00000000 </v>
   <v>       0.00000000       0.50000000       0.00000000 </v>
   <v>       0.50000000       0.75000004       0.25000000 </v>
   <v>       0.25000000       0.00000000       0.75000004 </v>
   <v>       0.50000000       0.00000000       0.50000000 </v>
   <v>       0.75000004       0.00000000       0.75000004 </v>
   <v>       0.25000000       0.75000004       0.50000000 </v>
   <v>       0.00000000       0.75000004       0.25000000 </v>
   <v>       0.75000004       0.50000000       0.25000000 </v>
   <v>       0.00000000       0.00000000       0.50000000 </v>
   <v>       0.50000000       0.50000000       0.50000000 </v>
   <v>       0.75000004       0.50000000       0.75000004 </v>
   <v>       0.75000004       0.75000004       0.50000000 </v>
  </varray>
 </structure>
 <calculation>
  <scstep>
   <time name="dav">   54.97   55.62</time>
   <time name="total">   55.02   55.68</time>
   <energy>
    <i name="alphaZ">   1975.23467543 </i>
    <i name="ewald"> -29697.98556408 </i>
    <i name="hartreedc"> -12275.66730671 </i>
    <i name="XCdc">   1396.64955566 </i>
    <i name="pawpsdc">  28607.30626345 </i>
    <i name="pawaedc"> -27970.95706577 </i>
    <i name="eentropy">     -0.11473363 </i>
    <i name="bandstr">  -2689.50352831 </i>
    <i name="atom">  44500.70129932 </i>
    <i name="e_fr_energy">   3845.66359537 </i>
    <i name="e_wo_entrp">   3845.77832900 </i>
    <i name="e_0_energy">   3845.72096218 </i>
   </energy>
  </scstep>
  <scstep>
   <time name="dav">   53.25   54.41</time>
   <time name="total">   53.25   54.41</time>
   <energy>
    <i name="e_fr_energy">     64.64458648 </i>
    <i name="e_wo_entrp">     64.93320722 </i>
    <i name="e_0_energy">     64.78889685 </i>
   </energy>
  </scstep>
  <scstep>
   <time name="dav">   77.89   79.16</time>
   <time name="total">   77.89   79.16</time>
   <energy>
    <i name="e_fr_energy">   -569.22820559 </i>
    <i name="e_wo_entrp">   -569.04286525 </i>
    <i name="e_0_energy">   -569.13553542 </i>
   </energy>
  </scstep>
  <scstep>
   <time name="dav">   79.18   80.58</time>
   <time name="total">   79.18   80.58</time>
   <energy>
    <i name="e_fr_energy">   -635.36941201 </i>
    <i name="e_wo_entrp">   -635.17301970 </i>
    <i name="e_0_energy">   -635.27121585 </i>
   </energy>
  </scstep>
  <scstep>
   <time name="dav">   90.00   91.47</time>
   <time name="total">   90.43   91.91</time>
   <energy>
    <i name="e_fr_energy">   -642.34874956 </i>
    <i name="e_wo_entrp">   -642.13407678 </i>
    <i name="e_0_energy">   -642.24141317 </i>
   </energy>
  </scstep>
  <scstep>
   <time name="diag">    2.18    2.20</time>
   <time name="diis">   51.01   51.88</time>
   <time name="orth">    0.61    0.62</time>
   <time name="total">   54.29   55.21</time>
   <energy>
    <i name="e_fr_energy">   -646.56218171 </i>
    <i name="e_wo_entrp">   -646.20711908 </i>
    <i name="e_0_energy">   -646.38465040 </i>
   </energy>
  </scstep>
  <scstep>
   <time name="diag">    2.16    2.21</time>
   <time name="diis">   54.07   54.93</time>
   <time name="orth">    0.54    0.55</time>
   <time name="total">   57.22   58.15</time>
   <energy>
    <i name="e_fr_energy">   -493.52583817 </i>
    <i name="e_wo_entrp">   -493.26870648 </i>
    <i name="e_0_energy">   -493.39727233 </i>
   </energy>
  </scstep>
  <scstep>
   <time name="diag">    2.23    2.29</time>
   <time name="diis">   56.92   57.77</time>
   <time name="orth">    0.58    0.59</time>
   <time name="total">   60.20   61.11</time>
   <energy>
    <i name="e_fr_energy">   -471.16527982 </i>
    <i name="e_wo_entrp">   -470.83227640 </i>
    <i name="e_0_energy">   -470.99877811 </i>
   </energy>
  </scstep>
  <scstep>
   <time name="diag">    2.25    2.28</time>
   <time name="diis">   58.09   59.13</time>
   <time name="orth">    0.58    0.59</time>
   <time name="total">   61.38   62.46</time>
   <energy>
    <i name="e_fr_energy">   -468.73154414 </i>
    <i name="e_wo_entrp">   -468.38031964 </i>
    <i name="e_0_energy">   -468.55593189 </i>
   </energy>
  </scstep>
  <scstep>
   <time name="diag">    2.18    2.20</time>
   <time name="diis">   56.72   57.71</time>
   <time name="orth">    0.54    0.54</time>
   <time name="total">   59.91   60.92</time>
   <energy>
    <i name="e_fr_energy">   -468.44568223 </i>
    <i name="e_wo_entrp">   -468.11093521 </i>
    <i name="e_0_energy">   -468.27830872 </i>
   </energy>
  </scstep>
  <scstep>
   <time name="diag">    2.17    2.19</time>
   <time name="diis">   54.70   55.69</time>
   <time name="orth">    0.57    0.58</time>
   <time name="total">   57.91   58.93</time>
   <energy>
    <i name="e_fr_energy">   -468.32922656 </i>
    <i name="e_wo_entrp">   -467.93364151 </i>
    <i name="e_0_energy">   -468.13143403 </i>
   </energy>
  </scstep>
  <scstep>
   <time name="diag">    2.26    2.29</time>
   <time name="diis">   54.09   54.98</time>
   <time name="orth">    0.58    0.61</time>
   <time name="total">   57.41   58.36</time>
   <energy>
    <i name="e_fr_energy">   -464.53899525 </i>
    <i name="e_wo_entrp">   -464.15817485 </i>
    <i name="e_0_energy">   -464.34858505 </i>
   </energy>
  </scstep>
  <scstep>
   <time name="diag">    2.22    2.25</time>
   <time name="diis">   55.16   55.87</time>
   <time name="orth">    0.55    0.55</time>
   <time name="total">   58.41   59.16</time>
   <energy>
    <i name="e_fr_energy">   -464.77026957 </i>
    <i name="e_wo_entrp">   -464.34159892 </i>
    <i name="e_0_energy">   -464.55593424 </i>
   </energy>
  </scstep>
  <scstep>
   <time name="diag">    2.33    2.35</time>
   <time name="diis">   59.47   60.54</time>
   <time name="orth">    0.54    0.54</time>
   <time name="total">   62.81   63.90</time>
   <energy>
    <i name="e_fr_energy">   -465.18058686 </i>
    <i name="e_wo_entrp">   -464.78331811 </i>
    <i name="e_0_energy">   -464.98195249 </i>
   </energy>
  </scstep>
  <scstep>
   <time name="diag">    2.18    2.20</time>
   <time name="diis">   55.37   56.33</time>
   <time name="orth">    0.55    0.55</time>
   <time name="total">   58.56   59.56</time>
   <energy>
    <i name="e_fr_energy">   -463.19265965 </i>
    <i name="e_wo_entrp">   -462.75166513 </i>
    <i name="e_0_energy">   -462.97216239 </i>
   </energy>
  </scstep>
  <scstep>
   <time name="diag">    2.26    2.28</time>
   <time name="diis">   56.31   57.22</time>
   <time name="orth">    0.54    0.54</time>
   <time name="total">   59.59   60.52</time>
   <energy>
    <i name="e_fr_energy">   -462.61058026 </i>
    <i name="e_wo_entrp">   -462.15190000 </i>
    <i name="e_0_energy">   -462.38124013 </i>
   </energy>
  </scstep>
  <scstep>
   <time name="diag">    2.24    2.27</time>
   <time name="diis">   55.27   56.18</time>
   <time name="orth">    0.54    0.54</time>
   <time name="total">   58.52   59.47</time>
   <energy>
    <i name="e_fr_energy">   -462.38389444 </i>
    <i name="e_wo_entrp">   -461.93910563 </i>
    <i name="e_0_energy">   -462.16150003 </i>
   </energy>
  </scstep>
  <scstep>
   <time name="diag">    2.17    2.20</time>
   <time name="diis">   56.45   57.27</time>
   <time name="orth">    0.58    0.58</time>
   <time name="total">   59.68   60.52</time>
   <energy>
    <i name="e_fr_energy">   -461.83754998 </i>
    <i name="e_wo_entrp">   -461.36073587 </i>
    <i name="e_0_energy">   -461.59914292 </i>
   </energy>
  </scstep>
  <scstep>
   <time name="diag">    2.18    2.19</time>
   <time name="diis">   57.24   58.21</time>
   <time name="orth">    0.57    0.57</time>
   <time name="total">   60.46   61.45</time>
   <energy>
    <i name="e_fr_energy">   -461.68987198 </i>
    <i name="e_wo_entrp">   -461.21704722 </i>
    <i name="e_0_energy">   -461.45345960 </i>
   </energy>
  </scstep>
  <scstep>
   <time name="diag">    2.19    2.21</time>
   <time name="diis">   58.06   59.02</time>
   <time name="orth">    0.54    0.55</time>
   <time name="total">   61.26   62.25</time>
   <energy>
    <i name="e_fr_energy">   -461.47832137 </i>
    <i name="e_wo_entrp">   -460.98907441 </i>
    <i name="e_0_energy">   -461.23369789 </i>
   </energy>
  </scstep>
  <scstep>
   <time name="diag">    2.40    2.44</time>
   <time name="diis">   60.61   61.61</time>
   <time name="orth">    0.62    0.63</time>
   <time name="total">   64.10   65.16</time>
   <energy>
    <i name="e_fr_energy">   -461.45038881 </i>
    <i name="e_wo_entrp">   -460.94935228 </i>
    <i name="e_0_energy">   -461.19987054 </i>
   </energy>
  </scstep>
  <scstep>
   <time name="diag">    2.16    2.20</time>
   <time name="diis">   56.64   57.52</time>
   <time name="orth">    0.56    0.56</time>
   <time name="total">   59.83   60.75</time>
   <energy>
    <i name="e_fr_energy">   -461.40508434 </i>
    <i name="e_wo_entrp">   -460.90150024 </i>
    <i name="e_0_energy">   -461.15329229 </i>
   </energy>
  </scstep>
  <scstep>
   <time name="diag">    2.28    2.31</time>
   <time name="diis">   57.44   57.90</time>
   <time name="orth">    0.54    0.54</time>
   <time name="total">   60.73   61.23</time>
   <energy>
    <i name="e_fr_energy">   -461.39787855 </i>
    <i name="e_wo_entrp">   -460.88452680 </i>
    <i name="e_0_energy">   -461.14120268 </i>
   </energy>
  </scstep>
  <scstep>
   <time name="diag">    2.28    2.32</time>
   <time name="diis">   58.76   59.18</time>
   <time name="orth">    0.63    0.63</time>
   <time name="total">   62.15   62.61</time>
   <energy>
    <i name="e_fr_energy">   -461.35885277 </i>
    <i name="e_wo_entrp">   -460.83845181 </i>
    <i name="e_0_energy">   -461.09865229 </i>
   </energy>
  </scstep>
  <scstep>
   <time name="diag">    2.21    2.21</time>
   <time name="diis">   59.51   60.03</time>
   <time name="orth">    0.54    0.55</time>
   <time name="total">   62.73   63.27</time>
   <energy>
    <i name="e_fr_energy">   -461.37483915 </i>
    <i name="e_wo_entrp">   -460.85098526 </i>
    <i name="e_0_energy">   -461.11291220 </i>
   </energy>
  </scstep>
  <scstep>
   <time name="diag">    2.17    2.22</time>
   <time name="diis">   58.30   58.84</time>
   <time name="orth">    0.57    0.57</time>
   <time name="total">   61.51   62.11</time>
   <energy>
    <i name="e_fr_energy">   -461.36035447 </i>
    <i name="e_wo_entrp">   -460.83210798 </i>
    <i name="e_0_energy">   -461.09623123 </i>
   </energy>
  </scstep>
  <scstep>
   <time name="diag">    2.25    2.28</time>
   <time name="diis">   58.23   58.82</time>
   <time name="orth">    0.54    0.54</time>
   <time name="total">   61.51   62.12</time>
   <energy>
    <i name="e_fr_energy">   -461.33666067 </i>
    <i name="e_wo_entrp">   -460.80808820 </i>
    <i name="e_0_energy">   -461.07237444 </i>
   </energy>
  </scstep>
  <scstep>
   <time name="diag">    2.26    2.27</time>
   <time name="diis">   57.92   61.00</time>
   <time name="orth">    2.76    2.80</time>
   <time name="total">   63.64   66.77</time>
   <energy>
    <i name="e_fr_energy">   -461.33666549 </i>
    <i name="e_wo_entrp">   -460.81624027 </i>
    <i name="e_0_energy">   -461.07645288 </i>
   </energy>
  </scstep>
  <scstep>
   <time name="diag">    9.72    9.75</time>
   <time name="diis">   58.58   59.39</time>
   <time name="orth">    3.20    3.21</time>
   <time name="total">   72.35   73.24</time>
   <energy>
    <i name="e_fr_energy">   -461.33071135 </i>
    <i name="e_wo_entrp">   -460.81111705 </i>
    <i name="e_0_energy">   -461.07091420 </i>
   </energy>
  </scstep>
  <scstep>
   <time name="diag">    7.39    7.43</time>
   <time name="diis">   59.01   60.48</time>
   <time name="orth">    3.13    3.14</time>
   <time name="total">   70.31   71.84</time>
   <energy>
    <i name="e_fr_energy">   -461.33247362 </i>
    <i name="e_wo_entrp">   -460.81016084 </i>
    <i name="e_0_energy">   -461.07131723 </i>
   </energy>
  </scstep>
  <scstep>
   <time name="diag">    5.15    6.41</time>
   <time name="diis">   55.91   58.68</time>
   <time name="orth">    3.42    3.42</time>
   <time name="total">   65.58   69.62</time>
   <energy>
    <i name="e_fr_energy">   -461.33515188 </i>
    <i name="e_wo_entrp">   -460.80964250 </i>
    <i name="e_0_energy">   -461.07239719 </i>
   </energy>
  </scstep>
  <scstep>
   <time name="diag">    6.24    6.80</time>
   <time name="diis">   54.12   56.64</time>
   <time name="orth">    3.10    3.16</time>
   <time name="total">   64.50   67.65</time>
   <energy>
    <i name="e_fr_energy">   -461.33665245 </i>
    <i name="e_wo_entrp">   -460.81201199 </i>
    <i name="e_0_energy">   -461.07433222 </i>
   </energy>
  </scstep>
  <scstep>
   <time name="diag">    7.49    7.53</time>
   <time name="diis">   50.89   56.67</time>
   <time name="orth">    3.84    3.85</time>
   <time name="total">   63.41   69.25</time>
   <energy>
    <i name="e_fr_energy">   -461.33819255 </i>
    <i name="e_wo_entrp">   -460.81440080 </i>
    <i name="e_0_energy">   -461.07629668 </i>
   </energy>
  </scstep>
  <scstep>
   <time name="diag">    6.60    6.66</time>
   <time name="diis">   53.43   58.39</time>
   <time name="orth">    3.18    3.20</time>
   <time name="total">   64.20   69.25</time>
   <energy>
    <i name="e_fr_energy">   -461.33977500 </i>
    <i name="e_wo_entrp">   -460.81378530 </i>
    <i name="e_0_energy">   -461.07678015 </i>
   </energy>
  </scstep>
  <scstep>
   <time name="diag">    7.08    7.12</time>
   <time name="diis">   53.04   55.97</time>
   <time name="orth">    2.79    3.00</time>
   <time name="total">   63.90   67.09</time>
   <energy>
    <i name="e_fr_energy">   -461.34096297 </i>
    <i name="e_wo_entrp">   -460.81478608 </i>
    <i name="e_0_energy">   -461.07787453 </i>
   </energy>
  </scstep>
  <scstep>
   <time name="diag">    6.35    6.73</time>
   <time name="diis">   49.11   52.78</time>
   <time name="orth">    8.15    8.17</time>
   <time name="total">   64.54   68.61</time>
   <energy>
    <i name="e_fr_energy">   -461.34183386 </i>
    <i name="e_wo_entrp">   -460.81620022 </i>
    <i name="e_0_energy">   -461.07901704 </i>
   </energy>
  </scstep>
  <scstep>
   <time name="diag">    3.43    3.45</time>
   <time name="diis">   50.06   54.89</time>
   <time name="orth">    3.02    4.46</time>
   <time name="total">   57.40   63.72</time>
   <energy>
    <i name="e_fr_energy">   -461.34263879 </i>
    <i name="e_wo_entrp">   -460.81664977 </i>
    <i name="e_0_energy">   -461.07964428 </i>
   </energy>
  </scstep>
  <scstep>
   <time name="diag">    3.31    3.46</time>
   <time name="diis">   50.32   52.49</time>
   <time name="orth">    7.65    7.72</time>
   <time name="total">   62.49   64.87</time>
   <energy>
    <i name="e_fr_energy">   -461.34333917 </i>
    <i name="e_wo_entrp">   -460.81717893 </i>
    <i name="e_0_energy">   -461.08025905 </i>
   </energy>
  </scstep>
  <scstep>
   <time name="diag">    2.69    2.73</time>
   <time name="diis">   49.26   50.46</time>
   <time name="orth">    4.24    4.26</time>
   <time name="total">   57.56   58.81</time>
   <energy>
    <i name="e_fr_energy">   -461.34387990 </i>
    <i name="e_wo_entrp">   -460.81736529 </i>
    <i name="e_0_energy">   -461.08062260 </i>
   </energy>
  </scstep>
  <scstep>
   <time name="diag">    8.39    8.45</time>
   <time name="diis">   46.95   50.50</time>
   <time name="orth">    4.93    4.95</time>
   <time name="total">   61.18   64.85</time>
   <energy>
    <i name="e_fr_energy">   -461.34432856 </i>
    <i name="e_wo_entrp">   -460.81760159 </i>
    <i name="e_0_energy">   -461.08096508 </i>
   </energy>
  </scstep>
  <scstep>
   <time name="diag">    8.09    9.27</time>
   <time name="diis">   43.74   48.72</time>
   <time name="orth">    2.99    3.98</time>
   <time name="total">   55.49   62.81</time>
   <energy>
    <i name="e_fr_energy">   -461.34471724 </i>
    <i name="e_wo_entrp">   -460.81781441 </i>
    <i name="e_0_energy">   -461.08126583 </i>
   </energy>
  </scstep>
  <scstep>
   <time name="diag">    7.10    7.83</time>
   <time name="diis">   37.38   41.30</time>
   <time name="orth">    2.81    3.14</time>
   <time name="total">   47.87   53.15</time>
   <energy>
    <i name="e_fr_energy">   -461.34503229 </i>
    <i name="e_wo_entrp">   -460.81796386 </i>
    <i name="e_0_energy">   -461.08149807 </i>
   </energy>
  </scstep>
  <scstep>
   <time name="diag">   13.92   14.65</time>
   <time name="diis">   42.90   43.27</time>
   <time name="orth">    3.37    3.38</time>
   <time name="total">   60.93   62.06</time>
   <energy>
    <i name="e_fr_energy">   -461.34529875 </i>
    <i name="e_wo_entrp">   -460.81811692 </i>
    <i name="e_0_energy">   -461.08170783 </i>
   </energy>
  </scstep>
  <scstep>
   <time name="diag">   12.44   13.62</time>
   <time name="diis">   38.17   40.78</time>
   <time name="orth">    2.79    2.95</time>
   <time name="total">   54.25   58.21</time>
   <energy>
    <i name="e_fr_energy">   -461.34552051 </i>
    <i name="e_wo_entrp">   -460.81821935 </i>
    <i name="e_0_energy">   -461.08186993 </i>
   </energy>
  </scstep>
  <scstep>
   <time name="diag">   13.39   14.55</time>
   <time name="diis">   34.33   37.63</time>
   <time name="orth">    2.33    2.81</time>
   <time name="total">   50.92   55.94</time>
   <energy>
    <i name="e_fr_energy">   -461.34570951 </i>
    <i name="e_wo_entrp">   -460.81825162 </i>
    <i name="e_0_energy">   -461.08198056 </i>
   </energy>
  </scstep>
  <scstep>
   <time name="diag">   10.87   11.79</time>
   <time name="diis">   37.54   39.56</time>
   <time name="orth">    2.64    2.87</time>
   <time name="total">   51.97   55.14</time>
   <energy>
    <i name="e_fr_energy">   -461.34586942 </i>
    <i name="e_wo_entrp">   -460.81826704 </i>
    <i name="e_0_energy">   -461.08206823 </i>
   </energy>
  </scstep>
  <scstep>
   <time name="diag">   11.34   12.08</time>
   <time name="diis">   37.48   38.88</time>
   <time name="orth">    3.22    3.81</time>
   <time name="total">   52.85   55.59</time>
   <energy>
    <i name="e_fr_energy">   -461.34600165 </i>
    <i name="e_wo_entrp">   -460.81833515 </i>
    <i name="e_0_energy">   -461.08216840 </i>
   </energy>
  </scstep>
  <scstep>
   <time name="diag">   15.64   16.32</time>
   <time name="diis">   37.78   38.69</time>
   <time name="orth">    3.53    4.08</time>
   <time name="total">   57.78   59.93</time>
   <energy>
    <i name="e_fr_energy">   -461.34611473 </i>
    <i name="e_wo_entrp">   -460.81838402 </i>
    <i name="e_0_energy">   -461.08224938 </i>
   </energy>
  </scstep>
  <scstep>
   <time name="diag">   16.01   17.97</time>
   <time name="diis">   37.89   38.53</time>
   <time name="orth">    5.86    5.88</time>
   <time name="total">   61.02   63.64</time>
   <energy>
    <i name="e_fr_energy">   -461.34621048 </i>
    <i name="e_wo_entrp">   -460.81840784 </i>
    <i name="e_0_energy">   -461.08230916 </i>
   </energy>
  </scstep>
  <scstep>
   <time name="diag">   15.05   15.99</time>
   <time name="diis">   35.19   36.99</time>
   <time name="orth">    3.30    3.31</time>
   <time name="total">   54.79   57.52</time>
   <energy>
    <i name="e_fr_energy">   -461.34629329 </i>
    <i name="e_wo_entrp">   -460.81841325 </i>
    <i name="e_0_energy">   -461.08235327 </i>
   </energy>
  </scstep>
  <scstep>
   <time name="diag">   14.13   16.55</time>
   <time name="diis">   35.88   37.31</time>
   <time name="orth">    3.79    3.79</time>
   <time name="total">   54.49   58.67</time>
   <energy>
    <i name="e_fr_energy">   -461.34636206 </i>
    <i name="e_wo_entrp">   -460.81843162 </i>
    <i name="e_0_energy">   -461.08239684 </i>
   </energy>
  </scstep>
  <scstep>
   <time name="diag">   14.36   14.68</time>
   <time name="diis">   33.40   36.25</time>
   <time name="orth">    3.73    3.90</time>
   <time name="total">   52.76   56.10</time>
   <energy>
    <i name="e_fr_energy">   -461.34642312 </i>
    <i name="e_wo_entrp">   -460.81842878 </i>
    <i name="e_0_energy">   -461.08242595 </i>
   </energy>
  </scstep>
  <scstep>
   <time name="diag">   12.01   12.60</time>
   <time name="diis">   32.11   34.48</time>
   <time name="orth">    2.96    3.04</time>
   <time name="total">   48.06   51.17</time>
   <energy>
    <i name="e_fr_energy">   -461.34647451 </i>
    <i name="e_wo_entrp">   -460.81842358 </i>
    <i name="e_0_energy">   -461.08244905 </i>
   </energy>
  </scstep>
  <scstep>
   <time name="diag">   15.45   15.96</time>
   <time name="diis">   33.13   34.98</time>
   <time name="orth">    2.58    2.94</time>
   <time name="total">   52.12   54.86</time>
   <energy>
    <i name="e_fr_energy">   -461.34651913 </i>
    <i name="e_wo_entrp">   -460.81842682 </i>
    <i name="e_0_energy">   -461.08247298 </i>
   </energy>
  </scstep>
  <scstep>
   <time name="diag">   14.50   14.75</time>
   <time name="diis">   33.76   34.09</time>
   <time name="orth">    0.56    0.57</time>
   <time name="total">   49.42   50.09</time>
   <energy>
    <i name="e_fr_energy">   -461.34655733 </i>
    <i name="e_wo_entrp">   -460.81842114 </i>
    <i name="e_0_energy">   -461.08248923 </i>
   </energy>
  </scstep>
  <scstep>
   <time name="diag">    2.41    2.45</time>
   <time name="diis">   31.58   34.15</time>
   <time name="orth">    2.78    2.93</time>
   <time name="total">   37.39   40.15</time>
   <energy>
    <i name="e_fr_energy">   -461.34658992 </i>
    <i name="e_wo_entrp">   -460.81842338 </i>
    <i name="e_0_energy">   -461.08250665 </i>
   </energy>
  </scstep>
  <scstep>
   <time name="diag">   12.68   13.64</time>
   <time name="diis">   32.19   33.47</time>
   <time name="orth">    2.85    2.96</time>
   <time name="total">   48.51   50.89</time>
   <energy>
    <i name="e_fr_energy">   -461.34661852 </i>
    <i name="e_wo_entrp">   -460.81841165 </i>
    <i name="e_0_energy">   -461.08251509 </i>
   </energy>
  </scstep>
  <scstep>
   <time name="diag">   12.45   13.56</time>
   <time name="diis">   33.21   33.77</time>
   <time name="orth">    2.85    2.85</time>
   <time name="total">   49.26   50.94</time>
   <energy>
    <i name="e_fr_energy">   -461.34664308 </i>
    <i name="e_wo_entrp">   -460.81840503 </i>
    <i name="e_0_energy">   -461.08252405 </i>
   </energy>
  </scstep>
  <scstep>
   <time name="diag">   14.37   14.87</time>
   <time name="diis">   31.60   32.37</time>
   <time name="orth">    3.57    3.67</time>
   <time name="total">   50.65   52.08</time>
   <energy>
    <i name="e_fr_energy">   -461.34666460 </i>
    <i name="e_wo_entrp">   -460.81839496 </i>
    <i name="e_0_energy">   -461.08252978 </i>
   </energy>
  </scstep>
  <scstep>
   <time name="diag">   13.66   14.47</time>
   <time name="diis">   31.01   32.41</time>
   <time name="orth">    0.54    0.54</time>
   <time name="total">   45.48   47.68</time>
   <energy>
    <i name="alphaZ">   1975.23467543 </i>
    <i name="ewald"> -29697.98556408 </i>
    <i name="hartreedc"> -11479.61513972 </i>
    <i name="XCdc">   1373.86788474 </i>
    <i name="pawpsdc">  26698.77986958 </i>
    <i name="pawaedc"> -26131.39643632 </i>
    <i name="eentropy">     -0.52829691 </i>
    <i name="bandstr">  -7700.40497534 </i>
    <i name="atom">  44500.70129932 </i>
    <i name="e_fr_energy">   -461.34668330 </i>
    <i name="e_wo_entrp">   -460.81838639 </i>
    <i name="e_0_energy">   -461.08253485 </i>
   </energy>
  </scstep>
  <structure>
   <crystal>
    <varray name="basis" >
     <v>      11.23999977       0.00000000       0.00000000 </v>
     <v>       0.00000000      11.23999977       0.00000000 </v>
     <v>       0.00000000       0.00000000      11.23999977 </v>
    </varray>
    <i name="volume">   1420.03453724 </i>
    <varray name="rec_basis" >
     <v>       0.08896797       0.00000000       0.00000000 </v>
     <v>       0.00000000       0.08896797       0.00000000 </v>
     <v>       0.00000000       0.00000000       0.08896797 </v>
    </varray>
   </crystal>
   <varray name="positions" >
    <v>       0.00000000       0.00000000       0.00000000 </v>
    <v>       0.25000000       0.00000000       0.25000000 </v>
    <v>       0.25000000       0.50000000       0.25000000 </v>
    <v>       0.50000000       0.50000000       0.00000000 </v>
    <v>       0.50000000       0.25000000       0.75000004 </v>
    <v>       0.00000000       0.50000000       0.50000000 </v>
    <v>       0.50000000       0.75000004       0.75000004 </v>
    <v>       0.00000000       0.25000000       0.25000000 </v>
    <v>       0.75000004       0.75000004       0.00000000 </v>
    <v>       0.00000000       0.25000000       0.75000004 </v>
    <v>       0.75000004       0.25000000       0.50000000 </v>
    <v>       0.00000000       0.75000004       0.75000004 </v>
    <v>       0.25000000       0.50000000       0.75000004 </v>
    <v>       0.25000000       0.25000000       0.00000000 </v>
    <v>       0.50000000       0.25000000       0.25000000 </v>
    <v>       0.75000004       0.00000000       0.25000000 </v>
    <v>       0.75000004       0.25000000       0.00000000 </v>
    <v>       0.25000000       0.75000004       0.00000000 </v>
    <v>       0.25000000       0.25000000       0.50000000 </v>
    <v>       0.25000000       0.25000000       0.25000000 </v>
    <v>       0.25000000       0.00000000       0.00000000 </v>
    <v>       0.00000000       0.25000000       0.00000000 </v>
    <v>       0.75000004       0.25000000       0.25000000 </v>
    <v>       0.75000004       0.00000000       0.00000000 </v>
    <v>       0.50000000       0.00000000       0.25000000 </v>
    <v>       0.00000000       0.50000000       0.25000000 </v>
    <v>       0.50000000       0.75000004       0.00000000 </v>
    <v>       0.00000000       0.00000000       0.75000004 </v>
    <v>       0.75000004       0.25000000       0.75000004 </v>
    <v>       0.75000004       0.00000000       0.50000000 </v>
    <v>       0.50000000       0.25000000       0.50000000 </v>
    <v>       0.50000000       0.00000000       0.75000004 </v>
    <v>       0.00000000       0.00000000       0.25000000 </v>
    <v>       0.50000000       0.25000000       0.00000000 </v>
    <v>       0.25000000       0.75000004       0.25000000 </v>
    <v>       0.25000000       0.50000000       0.00000000 </v>
    <v>       0.00000000       0.75000004       0.00000000 </v>
    <v>       0.75000004       0.75000004       0.25000000 </v>
    <v>       0.75000004       0.50000000       0.00000000 </v>
    <v>       0.50000000       0.50000000       0.25000000 </v>
    <v>       0.25000000       0.25000000       0.75000004 </v>
    <v>       0.25000000       0.00000000       0.50000000 </v>
    <v>       0.00000000       0.25000000       0.50000000 </v>
    <v>       0.25000000       0.75000004       0.75000004 </v>
    <v>       0.25000000       0.50000000       0.50000000 </v>
    <v>       0.00000000       0.75000004       0.50000000 </v>
    <v>       0.00000000       0.50000000       0.75000004 </v>
    <v>       0.75000004       0.75000004       0.75000004 </v>
    <v>       0.75000004       0.50000000       0.50000000 </v>
    <v>       0.50000000       0.75000004       0.50000000 </v>
    <v>       0.50000000       0.50000000       0.75000004 </v>
    <v>       0.50000000       0.00000000       0.00000000 </v>
    <v>       0.00000000       0.50000000       0.00000000 </v>
    <v>       0.50000000       0.75000004       0.25000000 </v>
    <v>       0.25000000       0.00000000       0.75000004 </v>
    <v>       0.50000000       0.00000000       0.50000000 </v>
    <v>       0.75000004       0.00000000       0.75000004 </v>
    <v>       0.25000000       0.75000004       0.50000000 </v>
    <v>       0.00000000       0.75000004       0.25000000 </v>
    <v>       0.75000004       0.50000000       0.25000000 </v>
    <v>       0.00000000       0.00000000       0.50000000 </v>
    <v>       0.50000000       0.50000000       0.50000000 </v>
    <v>       0.75000004       0.50000000       0.75000004 </v>
    <v>       0.75000004       0.75000004       0.50000000 </v>
   </varray>
  </structure>
  <varray name="forces" >
   <v>      -0.13237003      -0.42716227       0.31381562 </v>
   <v>      -0.73166625      -0.33863978       0.46018904 </v>
   <v>       0.15978723       0.33038533       0.06500976 </v>
   <v>       0.10269948      -0.10027629      -0.08968038 </v>
   <v>      -0.31256401       0.65993271       0.12455277 </v>
   <v>      -0.02806742       0.00228956       0.21434170 </v>
   <v>       0.01975049      -0.63274200      -0.35928512 </v>
   <v>      -0.11193611      -0.57785972       0.61560085 </v>
   <v>       0.74300780      -0.69607495      -0.05852200 </v>
   <v>       0.54213046       0.60062392      -0.65239046 </v>
   <v>       0.73869586       0.65320096       0.10791095 </v>
   <v>      -0.11013085      -0.58343740      -0.09641725 </v>
   <v>       0.05496789       0.02904435      -0.10820804 </v>
   <v>      -0.01139495       0.51041979      -0.36578199 </v>
   <v>       0.08476221       0.69044212      -0.07732356 </v>
   <v>       0.77418829      -0.32013466       0.24365031 </v>
   <v>      -0.05549616       0.56634225      -0.09731364 </v>
   <v>      -0.36038742      -0.47322090      -0.05909240 </v>
   <v>      -0.34909127       0.13905226       0.35227878 </v>
   <v>       0.63086480      -0.10647969      -0.04465609 </v>
   <v>       0.41348531       0.09790484      -0.28699208 </v>
   <v>       0.03206603       0.23753925       0.03457481 </v>
   <v>      -0.57282690      -0.71368393      -0.48842591 </v>
   <v>      -0.39171523       0.69629498       0.11723776 </v>
   <v>       0.60193085       0.27756625      -0.08445737 </v>
   <v>       0.05744036      -0.21276769      -0.32034715 </v>
   <v>      -0.62082372       0.46067194       0.32501911 </v>
   <v>      -0.20500177       0.04062447       0.22166416 </v>
   <v>      -0.07580779      -0.62508489       0.51922565 </v>
   <v>      -0.51622136       0.22287375      -0.12043617 </v>
   <v>      -0.51217946      -0.56530951      -0.59018463 </v>
   <v>       0.19765679       0.03753620       0.08977927 </v>
   <v>      -0.47841490       0.32825162      -0.10727956 </v>
   <v>       0.03031109      -0.46534772       0.49821137 </v>
   <v>       0.37105631       0.09669258      -0.24626353 </v>
   <v>      -0.28111491      -0.11404681      -0.05739255 </v>
   <v>       0.17522408      -0.15255228      -0.21933456 </v>
   <v>      -0.30871413       0.49538969      -0.24949515 </v>
   <v>       0.23974729      -0.31959080       0.01543224 </v>
   <v>       0.00110489      -0.26436229      -0.04492256 </v>
   <v>      -0.10450214      -0.18207459       0.05356493 </v>
   <v>       0.40270873       0.26044691       0.20594742 </v>
   <v>       0.03739613       0.04423840      -0.00296545 </v>
   <v>      -0.05521906       0.17970354       0.22629524 </v>
   <v>      -0.11761558      -0.24012775       0.11511463 </v>
   <v>       0.21659509      -0.06264258       0.25247330 </v>
   <v>       0.13096631      -0.01736207       0.14459937 </v>
   <v>       0.13798345       0.36229126       0.24804341 </v>
   <v>       0.08658271      -0.33715853      -0.00476716 </v>
   <v>      -0.24908311       0.37850443      -0.20651957 </v>
   <v>      -0.16925357      -0.01444229       0.03397896 </v>
   <v>       0.12766553       0.13218012      -0.12220538 </v>
   <v>      -0.09554416       0.30820968      -0.10497425 </v>
   <v>       0.11443471      -0.65192636       0.26169058 </v>
   <v>      -0.44539448      -0.02866703      -0.41843932 </v>
   <v>      -0.19866441      -0.29643346       0.12066990 </v>
   <v>       0.49782268      -0.30275244      -0.25531384 </v>
   <v>      -0.10669708      -0.16123641       0.09720304 </v>
   <v>      -0.13652887       0.37272047       0.07154288 </v>
   <v>      -0.22023407       0.46173336       0.03578681 </v>
   <v>       0.24132942       0.04453729      -0.35624885 </v>
   <v>       0.04256979       0.33827298       0.09956606 </v>
   <v>      -0.06339092       0.41779146      -0.03215900 </v>
   <v>       0.12112005      -0.49011163       0.04282430 </v>
  </varray>
  <varray name="stress" >
   <v>    -403.54701882       0.40610287       0.17808743 </v>
   <v>       0.40610217    -401.05038543       0.35968084 </v>
   <v>       0.17808718       0.35968067    -403.85453858 </v>
  </varray>
  <energy>
   <i name="e_fr_energy">   -461.34668330 </i>
   <i name="e_wo_entrp">   -460.81838639 </i>
   <i name="e_0_energy">   -461.08253485 </i>
  </energy>
  <time name="totalsc"> 3652.61 3784.86</time>
 </calculation>
 <calculation>
  <scstep>
   <time name="dav">  113.04  122.96</time>
   <time name="total">  114.10  124.02</time>
   <energy>
    <i name="alphaZ">   5059.21714827 </i>
    <i name="ewald"> -40657.25157443 </i>
    <i name="hartreedc"> -15678.18042564 </i>
    <i name="XCdc">   2026.42962852 </i>
    <i name="pawpsdc">  26698.78623186 </i>
    <i name="pawaedc"> -26131.40113340 </i>
    <i name="eentropy">     -0.09431792 </i>
    <i name="bandstr">    778.49127158 </i>
    <i name="atom">  44500.70129932 </i>
    <i name="e_fr_energy">  -3403.30187184 </i>
    <i name="e_wo_entrp">  -3403.20755392 </i>
    <i name="e_0_energy">  -3403.25471288 </i>
   </energy>
  </scstep>
  <scstep>
   <time name="diag">    2.18    2.22</time>
   <time name="diis">   55.49   59.88</time>
   <time name="orth">    2.97    3.09</time>
   <time name="total">   61.08   65.63</time>
   <energy>
    <i name="e_fr_energy">  -1120.59216603 </i>
    <i name="e_wo_entrp">  -1120.49730981 </i>
    <i name="e_0_energy">  -1120.54473792 </i>
   </energy>
  </scstep>
  <scstep>
   <time name="diag">    2.24    2.26</time>
   <time name="diis">   40.93   43.26</time>
   <time name="orth">    3.35    3.39</time>
   <time name="total">   46.95   49.48</time>
   <energy>
    <i name="e_fr_energy">   -553.53432906 </i>
    <i name="e_wo_entrp">   -553.41421615 </i>
    <i name="e_0_energy">   -553.47427260 </i>
   </energy>
  </scstep>
  <scstep>
   <time name="diag">   11.83   12.79</time>
   <time name="diis">   52.21   55.21</time>
   <time name="orth">    3.94    4.10</time>
   <time name="total">   68.67   72.94</time>
   <energy>
    <i name="e_fr_energy">   -579.54061449 </i>
    <i name="e_wo_entrp">   -579.43448225 </i>
    <i name="e_0_energy">   -579.48754837 </i>
   </energy>
  </scstep>
  <scstep>
   <time name="diag">    5.70    6.16</time>
   <time name="diis">   61.49   67.35</time>
   <time name="orth">    3.34    3.51</time>
   <time name="total">   71.39   77.89</time>
   <energy>
    <i name="e_fr_energy">   -589.78482595 </i>
    <i name="e_wo_entrp">   -589.66653069 </i>
    <i name="e_0_energy">   -589.72567832 </i>
   </energy>
  </scstep>
  <scstep>
   <time name="diag">    2.38    2.40</time>
   <time name="diis">   56.02   63.27</time>
   <time name="orth">    3.33    3.48</time>
   <time name="total">   62.15   69.71</time>
   <energy>
    <i name="e_fr_energy">   -584.44458333 </i>
    <i name="e_wo_entrp">   -584.31298699 </i>
    <i name="e_0_energy">   -584.37878516 </i>
   </energy>
  </scstep>
  <scstep>
   <time name="diag">    2.95    3.11</time>
   <time name="diis">   61.88   66.62</time>
   <time name="orth">    2.81    2.83</time>
   <time name="total">   68.37   73.30</time>
   <energy>
    <i name="e_fr_energy">   -588.53992935 </i>
    <i name="e_wo_entrp">   -588.40426072 </i>
    <i name="e_0_energy">   -588.47209503 </i>
   </energy>
  </scstep>
  <scstep>
   <time name="diag">    2.81    2.84</time>
   <time name="diis">   52.93   66.62</time>
   <time name="orth">    0.88    0.99</time>
   <time name="total">   57.28   71.13</time>
   <energy>
    <i name="e_fr_energy">   -587.28903025 </i>
    <i name="e_wo_entrp">   -587.15115807 </i>
    <i name="e_0_energy">   -587.22009416 </i>
   </energy>
  </scstep>
  <scstep>
   <time name="diag">    2.25    2.28</time>
   <time name="diis">   55.94   70.01</time>
   <time name="orth">    0.57    0.58</time>
   <time name="total">   59.19   73.32</time>
   <energy>
    <i name="e_fr_energy">   -589.50104648 </i>
    <i name="e_wo_entrp">   -589.36697831 </i>
    <i name="e_0_energy">   -589.43401240 </i>
   </energy>
  </scstep>
  <scstep>
   <time name="diag">    2.19    2.21</time>
   <time name="diis">   61.48   66.59</time>
   <time name="orth">    2.62    2.64</time>
   <time name="total">   66.73   71.88</time>
   <energy>
    <i name="e_fr_energy">   -590.56653191 </i>
    <i name="e_wo_entrp">   -590.42882255 </i>
    <i name="e_0_energy">   -590.49767723 </i>
   </energy>
  </scstep>
  <scstep>
   <time name="diag">    2.21    2.23</time>
   <time name="diis">   60.95   68.16</time>
   <time name="orth">    3.11    3.47</time>
   <time name="total">   66.71   74.31</time>
   <energy>
    <i name="e_fr_energy">   -591.66217197 </i>
    <i name="e_wo_entrp">   -591.52627535 </i>
    <i name="e_0_energy">   -591.59422366 </i>
   </energy>
  </scstep>
  <scstep>
   <time name="diag">    2.27    2.29</time>
   <time name="diis">   62.36   68.58</time>
   <time name="orth">    1.14    1.20</time>
   <time name="total">   66.22   72.53</time>
   <energy>
    <i name="e_fr_energy">   -592.22169981 </i>
    <i name="e_wo_entrp">   -592.08069484 </i>
    <i name="e_0_energy">   -592.15119732 </i>
   </energy>
  </scstep>
  <scstep>
   <time name="diag">    2.21    2.23</time>
   <time name="diis">   66.56   67.95</time>
   <time name="orth">    2.75    2.77</time>
   <time name="total">   72.22   73.66</time>
   <energy>
    <i name="e_fr_energy">   -592.60693959 </i>
    <i name="e_wo_entrp">   -592.46734152 </i>
    <i name="e_0_energy">   -592.53714056 </i>
   </energy>
  </scstep>
  <scstep>
   <time name="diag">    3.42    3.97</time>
   <time name="diis">   62.97   68.95</time>
   <time name="orth">    2.61    2.80</time>
   <time name="total">   69.59   76.31</time>
   <energy>
    <i name="e_fr_energy">   -592.87597034 </i>
    <i name="e_wo_entrp">   -592.73594489 </i>
    <i name="e_0_energy">   -592.80595761 </i>
   </energy>
  </scstep>
  <scstep>
   <time name="diag">    2.20    2.22</time>
   <time name="diis">   65.08   68.20</time>
   <time name="orth">    1.39    1.41</time>
   <time name="total">   69.10   72.27</time>
   <energy>
    <i name="e_fr_energy">   -593.04422437 </i>
    <i name="e_wo_entrp">   -592.90548469 </i>
    <i name="e_0_energy">   -592.97485453 </i>
   </energy>
  </scstep>
  <scstep>
   <time name="diag">    2.17    2.19</time>
   <time name="diis">   64.39   68.69</time>
   <time name="orth">    0.56    0.58</time>
   <time name="total">   67.56   71.91</time>
   <energy>
    <i name="e_fr_energy">   -593.14491010 </i>
    <i name="e_wo_entrp">   -593.00387260 </i>
    <i name="e_0_energy">   -593.07439135 </i>
   </energy>
  </scstep>
  <scstep>
   <time name="diag">    2.27    2.30</time>
   <time name="diis">   66.10   67.83</time>
   <time name="orth">    3.04    3.08</time>
   <time name="total">   72.14   73.94</time>
   <energy>
    <i name="e_fr_energy">   -593.20806553 </i>
    <i name="e_wo_entrp">   -593.06804459 </i>
    <i name="e_0_energy">   -593.13805506 </i>
   </energy>
  </scstep>
  <scstep>
   <time name="diag">    3.58    3.63</time>
   <time name="diis">   66.35   68.13</time>
   <time name="orth">    3.36    3.39</time>
   <time name="total">   73.90   75.77</time>
   <energy>
    <i name="e_fr_energy">   -593.25125574 </i>
    <i name="e_wo_entrp">   -593.11114429 </i>
    <i name="e_0_energy">   -593.18120001 </i>
   </energy>
  </scstep>
  <scstep>
   <time name="diag">    2.32    2.36</time>
   <time name="diis">   66.46   68.26</time>
   <time name="orth">    1.07    2.38</time>
   <time name="total">   70.32   73.47</time>
   <energy>
    <i name="e_fr_energy">   -593.28078957 </i>
    <i name="e_wo_entrp">   -593.14088707 </i>
    <i name="e_0_energy">   -593.21083832 </i>
   </energy>
  </scstep>
  <scstep>
   <time name="diag">    2.19    2.21</time>
   <time name="diis">   67.24   68.94</time>
   <time name="orth">    2.08    2.12</time>
   <time name="total">   71.95   73.71</time>
   <energy>
    <i name="e_fr_energy">   -593.30028989 </i>
    <i name="e_wo_entrp">   -593.16034388 </i>
    <i name="e_0_energy">   -593.23031688 </i>
   </energy>
  </scstep>
  <scstep>
   <time name="diag">    2.18    2.21</time>
   <time name="diis">   66.27   68.24</time>
   <time name="orth">    3.49    3.56</time>
   <time name="total">   72.55   74.66</time>
   <energy>
    <i name="e_fr_energy">   -593.31397149 </i>
    <i name="e_wo_entrp">   -593.17389256 </i>
    <i name="e_0_energy">   -593.24393202 </i>
   </energy>
  </scstep>
  <scstep>
   <time name="diag">    2.23    2.26</time>
   <time name="diis">   63.93   67.24</time>
   <time name="orth">    3.32    3.34</time>
   <time name="total">   70.09   73.52</time>
   <energy>
    <i name="e_fr_energy">   -593.32279827 </i>
    <i name="e_wo_entrp">   -593.18261107 </i>
    <i name="e_0_energy">   -593.25270467 </i>
   </energy>
  </scstep>
  <scstep>
   <time name="diag">    2.53    2.55</time>
   <time name="diis">   66.68   67.70</time>
   <time name="orth">    3.74    3.75</time>
   <time name="total">   73.77   74.83</time>
   <energy>
    <i name="e_fr_energy">   -593.32919156 </i>
    <i name="e_wo_entrp">   -593.18907419 </i>
    <i name="e_0_energy">   -593.25913288 </i>
   </energy>
  </scstep>
  <scstep>
   <time name="diag">    3.43    3.45</time>
   <time name="diis">   64.89   67.34</time>
   <time name="orth">    3.40    3.43</time>
   <time name="total">   72.70   75.19</time>
   <energy>
    <i name="e_fr_energy">   -593.33355476 </i>
    <i name="e_wo_entrp">   -593.19329066 </i>
    <i name="e_0_energy">   -593.26342271 </i>
   </energy>
  </scstep>
  <scstep>
   <time name="diag">    2.91    2.96</time>
   <time name="diis">   62.77   66.56</time>
   <time name="orth">    2.51    2.52</time>
   <time name="total">   68.94   72.78</time>
   <energy>
    <i name="e_fr_energy">   -593.33681584 </i>
    <i name="e_wo_entrp">   -593.19660527 </i>
    <i name="e_0_energy">   -593.26671056 </i>
   </energy>
  </scstep>
  <scstep>
   <time name="diag">    5.68    5.82</time>
   <time name="diis">   63.40   66.63</time>
   <time name="orth">    4.09    4.10</time>
   <time name="total">   74.09   77.50</time>
   <energy>
    <i name="e_fr_energy">   -593.33907538 </i>
    <i name="e_wo_entrp">   -593.19884928 </i>
    <i name="e_0_energy">   -593.26896233 </i>
   </energy>
  </scstep>
  <scstep>
   <time name="diag">    2.22    2.23</time>
   <time name="diis">   63.11   66.92</time>
   <time name="orth">    3.04    3.08</time>
   <time name="total">   69.21   73.08</time>
   <energy>
    <i name="e_fr_energy">   -593.34083633 </i>
    <i name="e_wo_entrp">   -593.20060965 </i>
    <i name="e_0_energy">   -593.27072299 </i>
   </energy>
  </scstep>
  <scstep>
   <time name="diag">    2.74    2.76</time>
   <time name="diis">   63.53   65.90</time>
   <time name="orth">    3.14    3.15</time>
   <time name="total">   70.18   73.04</time>
   <energy>
    <i name="e_fr_energy">   -593.34209500 </i>
    <i name="e_wo_entrp">   -593.20186057 </i>
    <i name="e_0_energy">   -593.27197778 </i>
   </energy>
  </scstep>
  <scstep>
   <time name="diag">    3.25    3.27</time>
   <time name="diis">   62.95   66.92</time>
   <time name="orth">    3.55    3.59</time>
   <time name="total">   71.29   75.32</time>
   <energy>
    <i name="e_fr_energy">   -593.34318107 </i>
    <i name="e_wo_entrp">   -593.20292420 </i>
    <i name="e_0_energy">   -593.27305263 </i>
   </energy>
  </scstep>
  <scstep>
   <time name="diag">    2.28    2.36</time>
   <time name="diis">   61.11   66.29</time>
   <time name="orth">    3.18    3.51</time>
   <time name="total">   67.03   72.74</time>
   <energy>
    <i name="e_fr_energy">   -593.34390245 </i>
    <i name="e_wo_entrp">   -593.20364358 </i>
    <i name="e_0_energy">   -593.27377301 </i>
   </energy>
  </scstep>
  <scstep>
   <time name="diag">    2.29    2.29</time>
   <time name="diis">   60.10   66.14</time>
   <time name="orth">    3.15    3.17</time>
   <time name="total">   65.98   72.09</time>
   <energy>
    <i name="e_fr_energy">   -593.34445112 </i>
    <i name="e_wo_entrp">   -593.20419186 </i>
    <i name="e_0_energy">   -593.27432149 </i>
   </energy>
  </scstep>
  <scstep>
   <time name="diag">    2.32    2.33</time>
   <time name="diis">   59.40   64.38</time>
   <time name="orth">    3.13    3.14</time>
   <time name="total">   65.39   70.39</time>
   <energy>
    <i name="e_fr_energy">   -593.34485327 </i>
    <i name="e_wo_entrp">   -593.20457293 </i>
    <i name="e_0_energy">   -593.27471310 </i>
   </energy>
  </scstep>
  <scstep>
   <time name="diag">    4.07    4.10</time>
   <time name="diis">   59.17   64.26</time>
   <time name="orth">    2.94    3.54</time>
   <time name="total">   66.97   72.70</time>
   <energy>
    <i name="e_fr_energy">   -593.34508881 </i>
    <i name="e_wo_entrp">   -593.20482497 </i>
    <i name="e_0_energy">   -593.27495689 </i>
   </energy>
  </scstep>
  <scstep>
   <time name="diag">    3.75    3.76</time>
   <time name="diis">   62.13   64.16</time>
   <time name="orth">    3.10    4.45</time>
   <time name="total">   69.74   73.25</time>
   <energy>
    <i name="e_fr_energy">   -593.34531232 </i>
    <i name="e_wo_entrp">   -593.20506141 </i>
    <i name="e_0_energy">   -593.27518687 </i>
   </energy>
  </scstep>
  <scstep>
   <time name="diag">    3.21    3.24</time>
   <time name="diis">   59.77   65.07</time>
   <time name="orth">    2.98    2.98</time>
   <time name="total">   66.61   72.05</time>
   <energy>
    <i name="e_fr_energy">   -593.34544966 </i>
    <i name="e_wo_entrp">   -593.20522233 </i>
    <i name="e_0_energy">   -593.27533600 </i>
   </energy>
  </scstep>
  <scstep>
   <time name="diag">    3.03    3.03</time>
   <time name="diis">   56.18   61.48</time>
   <time name="orth">    3.09    3.52</time>
   <time name="total">   63.09   68.84</time>
   <energy>
    <i name="e_fr_energy">   -593.34559535 </i>
    <i name="e_wo_entrp">   -593.20537507 </i>
    <i name="e_0_energy">   -593.27548521 </i>
   </energy>
  </scstep>
  <scstep>
   <time name="diag">    3.66    3.76</time>
   <time name="diis">   57.63   62.92</time>
   <time name="orth">    2.73    2.88</time>
   <time name="total">   64.69   70.56</time>
   <energy>
    <i name="e_fr_energy">   -593.34569760 </i>
    <i name="e_wo_entrp">   -593.20549236 </i>
    <i name="e_0_energy">   -593.27559498 </i>
   </energy>
  </scstep>
  <scstep>
   <time name="diag">    5.67    6.04</time>
   <time name="diis">   48.59   49.53</time>
   <time name="orth">    3.07    3.08</time>
   <time name="total">   58.35   59.70</time>
   <energy>
    <i name="e_fr_energy">   -593.34576331 </i>
    <i name="e_wo_entrp">   -593.20555476 </i>
    <i name="e_0_energy">   -593.27565903 </i>
   </energy>
  </scstep>
  <scstep>
   <time name="diag">   10.29   11.00</time>
   <time name="diis">   49.32   50.50</time>
[...]
      </set>
     </set>
    </set>
   </array>
  </eigenvalues>
  <separator name="orbital magnetization" >
   <v name="MAGDIPOLOUT">      0.00000000      0.00000000      0.00000000</v>
  </separator>
  <dos>
   <i name="efermi">      7.44268289 </i>
   <total>
    <array>
     <dimension dim="1">gridpoints</dimension>
     <dimension dim="2">spin</dimension>
     <field>energy</field>
     <field>total</field>
     <field>integrated</field>
     <set>
      <set comment="spin 1">
       <r>   -60.9508     0.0000     0.0000 </r>
       <r>   -60.7010     0.0000     0.0000 </r>
       <r>   -60.4512     0.0000     0.0000 </r>
       <r>   -60.2014     0.0000     0.0000 </r>
       <r>   -59.9516     0.0000     0.0000 </r>
       <r>   -59.7018     0.0000     0.0000 </r>
       <r>   -59.4520     0.0000     0.0000 </r>
       <r>   -59.2022     0.0000     0.0000 </r>
       <r>   -58.9524     0.0000     0.0000 </r>
       <r>   -58.7026     0.0000     0.0000 </r>
       <r>   -58.4528     0.0000     0.0000 </r>
       <r>   -58.2030     0.0000     0.0000 </r>
       <r>   -57.9533     0.0000     0.0000 </r>
       <r>   -57.7035     0.1241     0.0310 </r>
       <r>   -57.4537    23.7710     5.9688 </r>
       <r>   -57.2039    23.9979    11.9633 </r>
       <r>   -56.9541     0.1471    12.0000 </r>
       <r>   -56.7043     0.0000    12.0000 </r>
       <r>   -56.4545     0.0000    12.0000 </r>
       <r>   -56.2047     0.0000    12.0000 </r>
       <r>   -55.9549     0.0000    12.0000 </r>
       <r>   -55.7051     0.0000    12.0000 </r>
       <r>   -55.4553     0.0000    12.0000 </r>
       <r>   -55.2056     0.0000    12.0000 </r>
       <r>   -54.9558     0.0000    12.0000 </r>
       <r>   -54.7060     0.0000    12.0000 </r>
       <r>   -54.4562     0.0000    12.0000 </r>
       <r>   -54.2064     0.0000    12.0000 </r>
       <r>   -53.9566     0.0000    12.0000 </r>
       <r>   -53.7068     0.0000    12.0000 </r>
       <r>   -53.4570     0.0000    12.0000 </r>
       <r>   -53.2072     0.0000    12.0000 </r>
       <r>   -52.9574     0.0000    12.0000 </r>
       <r>   -52.7076     0.0000    12.0000 </r>
       <r>   -52.4578     0.0000    12.0000 </r>
       <r>   -52.2081     0.0000    12.0000 </r>
       <r>   -51.9583     0.0000    12.0000 </r>
       <r>   -51.7085     0.0000    12.0000 </r>
       <r>   -51.4587     0.0000    12.0000 </r>
       <r>   -51.2089     0.0000    12.0000 </r>
       <r>   -50.9591     0.0000    12.0000 </r>
       <r>   -50.7093     0.0000    12.0000 </r>
       <r>   -50.4595     0.0178    12.0044 </r>
       <r>   -50.2097     6.0309    13.5109 </r>
       <r>   -49.9599    15.1986    17.3074 </r>
       <r>   -49.7101    32.7802    25.4956 </r>
       <r>   -49.4604     2.0194    26.0000 </r>
       <r>   -49.2106     0.0001    26.0000 </r>
       <r>   -48.9608     0.0000    26.0000 </r>
       <r>   -48.7110     0.0000    26.0000 </r>
       <r>   -48.4612     0.0000    26.0000 </r>
       <r>   -48.2114     0.0000    26.0000 </r>
       <r>   -47.9616     0.0000    26.0000 </r>
       <r>   -47.7118     0.0000    26.0000 </r>
       <r>   -47.4620     0.0000    26.0000 </r>
       <r>   -47.2122     0.0000    26.0000 </r>
       <r>   -46.9624     0.0000    26.0000 </r>
       <r>   -46.7126     0.0000    26.0000 </r>
       <r>   -46.4629     0.0000    26.0000 </r>
       <r>   -46.2131     0.0000    26.0000 </r>
       <r>   -45.9633     0.0000    26.0000 </r>
       <r>   -45.7135     0.0000    26.0000 </r>
       <r>   -45.4637     0.0000    26.0000 </r>
       <r>   -45.2139     0.0000    26.0000 </r>
       <r>   -44.9641     0.0000    26.0000 </r>
       <r>   -44.7143     0.0000    26.0000 </r>
       <r>   -44.4645     0.0000    26.0000 </r>
       <r>   -44.2147     0.0000    26.0000 </r>
       <r>   -43.9649     0.0000    26.0000 </r>
       <r>   -43.7152     0.0000    26.0000 </r>
       <r>   -43.4654     0.0000    26.0000 </r>
       <r>   -43.2156     0.0000    26.0000 </r>
       <r>   -42.9658     0.0000    26.0000 </r>
       <r>   -42.7160     0.0000    26.0000 </r>
       <r>   -42.4662     0.0000    26.0000 </r>
       <r>   -42.2164     0.0000    26.0000 </r>
       <r>   -41.9666     0.3901    26.0974 </r>
       <r>   -41.7168    14.3880    29.6914 </r>
       <r>   -41.4670     9.2973    32.0138 </r>
       <r>   -41.2172    13.0983    35.2857 </r>
       <r>   -40.9674    10.6576    37.9478 </r>
       <r>   -40.7177     4.2063    38.9985 </r>
       <r>   -40.4679     4.0076    39.9996 </r>
       <r>   -40.2181     0.0017    40.0000 </r>
       <r>   -39.9683     0.0000    40.0000 </r>
       <r>   -39.7185     0.0000    40.0000 </r>
       <r>   -39.4687     0.0000    40.0000 </r>
       <r>   -39.2189     0.0000    40.0000 </r>
       <r>   -38.9691     0.0000    40.0000 </r>
       <r>   -38.7193     0.0000    40.0000 </r>
       <r>   -38.4695     0.0000    40.0000 </r>
       <r>   -38.2197     0.0000    40.0000 </r>
       <r>   -37.9700     0.0000    40.0000 </r>
       <r>   -37.7202     0.0000    40.0000 </r>
       <r>   -37.4704     0.0000    40.0000 </r>
       <r>   -37.2206     0.0000    40.0000 </r>
       <r>   -36.9708     0.0000    40.0000 </r>
       <r>   -36.7210     0.0000    40.0000 </r>
       <r>   -36.4712     0.0000    40.0000 </r>
       <r>   -36.2214     0.0000    40.0000 </r>
       <r>   -35.9716     0.0000    40.0000 </r>
       <r>   -35.7218     0.0000    40.0000 </r>
       <r>   -35.4720     0.0000    40.0000 </r>
       <r>   -35.2222     0.0000    40.0000 </r>
       <r>   -34.9725     0.0000    40.0000 </r>
       <r>   -34.7227     0.0000    40.0000 </r>
       <r>   -34.4729     0.0000    40.0000 </r>
       <r>   -34.2231     0.0000    40.0000 </r>
       <r>   -33.9733     0.0000    40.0000 </r>
       <r>   -33.7235     0.0000    40.0000 </r>
       <r>   -33.4737     0.0000    40.0000 </r>
       <r>   -33.2239     0.0000    40.0000 </r>
       <r>   -32.9741     0.0000    40.0000 </r>
       <r>   -32.7243     0.0000    40.0000 </r>
       <r>   -32.4745     0.0000    40.0000 </r>
       <r>   -32.2248     0.0000    40.0000 </r>
       <r>   -31.9750     0.0000    40.0000 </r>
       <r>   -31.7252     0.0684    40.0171 </r>
       <r>   -31.4754    34.0452    48.5213 </r>
       <r>   -31.2256    99.9069    73.4771 </r>
       <r>   -30.9758    10.0991    75.9998 </r>
       <r>   -30.7260     0.0008    76.0000 </r>
       <r>   -30.4762     0.0000    76.0000 </r>
       <r>   -30.2264     0.0000    76.0000 </r>
       <r>   -29.9766     0.0000    76.0000 </r>
       <r>   -29.7268     0.0000    76.0000 </r>
       <r>   -29.4770     0.0000    76.0000 </r>
       <r>   -29.2273     0.0000    76.0000 </r>
       <r>   -28.9775     0.0000    76.0000 </r>
       <r>   -28.7277     0.0000    76.0000 </r>
       <r>   -28.4779     0.0000    76.0000 </r>
       <r>   -28.2281     0.0000    76.0000 </r>
       <r>   -27.9783     0.0000    76.0000 </r>
       <r>   -27.7285     0.0000    76.0000 </r>
       <r>   -27.4787     0.0000    76.0000 </r>
       <r>   -27.2289     0.0000    76.0000 </r>
       <r>   -26.9791     0.0000    76.0000 </r>
       <r>   -26.7293     1.8274    76.4565 </r>
       <r>   -26.4796    24.1511    82.4892 </r>
       <r>   -26.2298    86.1221   104.0018 </r>
       <r>   -25.9800    54.6082   117.6424 </r>
       <r>   -25.7302     1.4315   118.0000 </r>
       <r>   -25.4804     0.0000   118.0000 </r>
       <r>   -25.2306     0.0000   118.0000 </r>
       <r>   -24.9808     0.0000   118.0000 </r>
       <r>   -24.7310     0.0000   118.0000 </r>
       <r>   -24.4812     0.0000   118.0000 </r>
       <r>   -24.2314     0.0000   118.0000 </r>
       <r>   -23.9816     0.0000   118.0000 </r>
       <r>   -23.7318     0.5051   118.1262 </r>
       <r>   -23.4821    17.9611   122.6127 </r>
       <r>   -23.2323    48.2218   134.6581 </r>
       <r>   -22.9825    28.0217   141.6577 </r>
       <r>   -22.7327    48.3324   153.7307 </r>
       <r>   -22.4829     1.0781   154.0000 </r>
       <r>   -22.2331     0.0000   154.0000 </r>
       <r>   -21.9833     0.0000   154.0000 </r>
       <r>   -21.7335     0.0000   154.0000 </r>
       <r>   -21.4837     0.0000   154.0000 </r>
       <r>   -21.2339     0.0000   154.0000 </r>
       <r>   -20.9841     0.0000   154.0000 </r>
       <r>   -20.7344     0.0000   154.0000 </r>
       <r>   -20.4846     0.0426   154.0106 </r>
       <r>   -20.2348    13.6199   157.4128 </r>
       <r>   -19.9850    35.0881   166.1775 </r>
       <r>   -19.7352    24.8891   172.3945 </r>
       <r>   -19.4854    44.2723   183.4534 </r>
       <r>   -19.2356    26.0310   189.9557 </r>
       <r>   -18.9858    17.6346   194.3607 </r>
       <r>   -18.7360     6.5616   195.9997 </r>
       <r>   -18.4862     0.0012   196.0000 </r>
       <r>   -18.2364     0.0000   196.0000 </r>
       <r>   -17.9866     0.0000   196.0000 </r>
       <r>   -17.7369     0.0000   196.0000 </r>
       <r>   -17.4871     0.0000   196.0000 </r>
       <r>   -17.2373     0.0000   196.0000 </r>
       <r>   -16.9875     0.0000   196.0000 </r>
       <r>   -16.7377     0.0000   196.0000 </r>
       <r>   -16.4879     0.0000   196.0000 </r>
       <r>   -16.2381     0.0000   196.0000 </r>
       <r>   -15.9883     0.0000   196.0000 </r>
       <r>   -15.7385     0.0000   196.0000 </r>
       <r>   -15.4887     0.0000   196.0000 </r>
       <r>   -15.2389     0.0000   196.0000 </r>
       <r>   -14.9892     0.0000   196.0000 </r>
       <r>   -14.7394     0.0000   196.0000 </r>
       <r>   -14.4896     0.0000   196.0000 </r>
       <r>   -14.2398     0.0000   196.0000 </r>
       <r>   -13.9900     0.0000   196.0000 </r>
       <r>   -13.7402     0.0000   196.0000 </r>
       <r>   -13.4904     0.0000   196.0000 </r>
       <r>   -13.2406     0.0000   196.0000 </r>
       <r>   -12.9908     0.0000   196.0000 </r>
       <r>   -12.7410     0.0000   196.0000 </r>
       <r>   -12.4912     0.0000   196.0000 </r>
       <r>   -12.2414     0.0000   196.0000 </r>
       <r>   -11.9917     0.0000   196.0000 </r>
       <r>   -11.7419     0.0000   196.0000 </r>
       <r>   -11.4921     0.0000   196.0000 </r>
       <r>   -11.2423     0.0000   196.0000 </r>
       <r>   -10.9925     0.0000   196.0000 </r>
       <r>   -10.7427     0.0000   196.0000 </r>
       <r>   -10.4929     0.0000   196.0000 </r>
       <r>   -10.2431     0.0000   196.0000 </r>
       <r>    -9.9933     0.0000   196.0000 </r>
       <r>    -9.7435     0.0000   196.0000 </r>
       <r>    -9.4937     0.0000   196.0000 </r>
       <r>    -9.2440     0.0000   196.0000 </r>
       <r>    -8.9942     0.0000   196.0000 </r>
       <r>    -8.7444     0.0028   196.0007 </r>
       <r>    -8.4946     2.1109   196.5280 </r>
       <r>    -8.2448     5.8055   197.9781 </r>
       <r>    -7.9950     2.0553   198.4915 </r>
       <r>    -7.7452    10.5909   201.1370 </r>
       <r>    -7.4954    20.0502   206.1454 </r>
       <r>    -7.2456    26.9712   212.8826 </r>
       <r>    -6.9958    21.5411   218.2633 </r>
       <r>    -6.7460    10.2602   220.8262 </r>
       <r>    -6.4962     4.3036   221.9012 </r>
       <r>    -6.2465     0.3954   222.0000 </r>
       <r>    -5.9967     0.0000   222.0000 </r>
       <r>    -5.7469     0.0000   222.0000 </r>
       <r>    -5.4971     0.0000   222.0000 </r>
       <r>    -5.2473     0.0000   222.0000 </r>
       <r>    -4.9975     0.0545   222.0136 </r>
       <r>    -4.7477     4.1570   223.0520 </r>
       <r>    -4.4979     4.3074   224.1279 </r>
       <r>    -4.2481     9.9793   226.6207 </r>
       <r>    -3.9983    12.4639   229.7341 </r>
       <r>    -3.7485    17.7656   234.1717 </r>
       <r>    -3.4988    23.4163   240.0209 </r>
       <r>    -3.2490    23.2965   245.8402 </r>
       <r>    -2.9992    21.4112   251.1885 </r>
       <r>    -2.7494    22.0461   256.6954 </r>
       <r>    -2.4996    10.6372   259.3525 </r>
       <r>    -2.2498     2.5462   259.9885 </r>
       <r>    -2.0000     0.0459   260.0000 </r>
       <r>    -1.7502     0.0000   260.0000 </r>
       <r>    -1.5004     0.0000   260.0000 </r>
       <r>    -1.2506     0.0000   260.0000 </r>
       <r>    -1.0008     0.0000   260.0000 </r>
       <r>    -0.7510     0.0000   260.0000 </r>
       <r>    -0.5013     0.0000   260.0000 </r>
       <r>    -0.2515     0.0005   260.0001 </r>
       <r>    -0.0017     0.4937   260.1235 </r>
       <r>     0.2481     2.7995   260.8228 </r>
       <r>     0.4979    10.3558   263.4096 </r>
       <r>     0.7477    11.7014   266.3325 </r>
       <r>     0.9975    14.4682   269.9465 </r>
       <r>     1.2473    23.6768   275.8608 </r>
       <r>     1.4971    32.5052   283.9803 </r>
       <r>     1.7469    28.7075   291.1512 </r>
       <r>     1.9967    32.8836   299.3652 </r>
       <r>     2.2464    34.7070   308.0347 </r>
       <r>     2.4962    41.6145   318.4297 </r>
       <r>     2.7460    55.7651   332.3593 </r>
       <r>     2.9958    58.2832   346.9179 </r>
       <r>     3.2456    59.9593   361.8953 </r>
       <r>     3.4954    65.5936   378.2800 </r>
       <r>     3.7452    58.7311   392.9505 </r>
       <r>     3.9950    52.4863   406.0611 </r>
       <r>     4.2448    44.8090   417.2540 </r>
       <r>     4.4946    42.0657   427.7616 </r>
       <r>     4.7444    30.4651   435.3716 </r>
       <r>     4.9942    26.9494   442.1033 </r>
       <r>     5.2439    19.0848   446.8705 </r>
       <r>     5.4937    15.7756   450.8111 </r>
       <r>     5.7435     6.9399   452.5446 </r>
       <r>     5.9933    15.6204   456.4465 </r>
       <r>     6.2431    18.0432   460.9535 </r>
       <r>     6.4929    15.3126   464.7785 </r>
       <r>     6.7427    18.5791   469.4194 </r>
       <r>     6.9925    19.7963   474.3643 </r>
       <r>     7.2423    20.1338   479.3935 </r>
       <r>     7.4921    18.4446   484.0009 </r>
       <r>     7.7419    26.4542   490.6089 </r>
       <r>     7.9916    39.2807   500.4208 </r>
       <r>     8.2414    43.1869   511.2086 </r>
       <r>     8.4912    43.0744   521.9682 </r>
       <r>     8.7410    47.7429   533.8939 </r>
       <r>     8.9908    50.6517   546.5463 </r>
       <r>     9.2406    50.1587   559.0755 </r>
       <r>     9.4904    50.3989   571.6647 </r>
       <r>     9.7402    51.0847   584.4252 </r>
       <r>     9.9900    45.3865   595.7624 </r>
       <r>    10.2398    42.8465   606.4650 </r>
       <r>    10.4896    32.3307   614.5410 </r>
       <r>    10.7394     5.8177   615.9942 </r>
       <r>    10.9891     0.0233   616.0000 </r>
       <r>    11.2389     0.0000   616.0000 </r>
       <r>    11.4887     0.0000   616.0000 </r>
       <r>    11.7385     0.0000   616.0000 </r>
       <r>    11.9883     0.0000   616.0000 </r>
       <r>    12.2381     0.0000   616.0000 </r>
       <r>    12.4879     0.0000   616.0000 </r>
       <r>    12.7377     0.0000   616.0000 </r>
       <r>    12.9875     0.0000   616.0000 </r>
       <r>    13.2373     0.0000   616.0000 </r>
       <r>    13.4871     0.0000   616.0000 </r>
       <r>    13.7368     0.0000   616.0000 </r>
       <r>    13.9866     0.0000   616.0000 </r>
      </set>
     </set>
    </array>
   </total>
  </dos>
 </calculation>
 <structure name="finalpos" >
  <crystal>
   <varray name="basis" >
    <v>       8.87788288       0.00022254       0.02462262 </v>
    <v>       0.00030660       8.95327621      -0.00196832 </v>
    <v>       0.02454966      -0.00189782       8.86441732 </v>
   </varray>
   <i name="volume">    704.59284932 </i>
   <varray name="rec_basis" >
    <v>       0.11264033      -0.00000393      -0.00031195 </v>
    <v>      -0.00000287       0.11169096       0.00002392 </v>
    <v>      -0.00031288       0.00002481       0.11281145 </v>
   </varray>
  </crystal>
  <varray name="positions" >
   <v>       0.99594252       0.99758578       0.01032218 </v>
   <v>       0.24132382       0.99576570       0.25409434 </v>
   <v>       0.25891782       0.50541446       0.25235281 </v>
   <v>       0.49980682       0.50364467       0.00076897 </v>
   <v>       0.49272807       0.26125300       0.74808402 </v>
   <v>       0.99957001       0.49787431       0.48900448 </v>
   <v>       0.50584791       0.73886195       0.74758284 </v>
   <v>       0.99125237       0.23153565       0.26555431 </v>
   <v>       0.76048630       0.73844483       0.98368490 </v>
   <v>       0.01783919       0.27811277       0.74625586 </v>
   <v>       0.76113320       0.27490188       0.48476084 </v>
   <v>       0.98837939       0.72154671       0.74379239 </v>
   <v>       0.26716060       0.50019248       0.74841129 </v>
   <v>       0.24591883       0.25239512       0.00242279 </v>
   <v>       0.50274089       0.25495516       0.25174036 </v>
   <v>       0.75657726       0.99419759       0.25460791 </v>
   <v>       0.75278144       0.25980723       0.99243363 </v>
   <v>       0.24286558       0.74824778       0.00138346 </v>
   <v>       0.24751093       0.25332537       0.49982654 </v>
   <v>       0.24811727       0.24728832       0.25216182 </v>
   <v>       0.24458977       0.00063692       0.00672179 </v>
   <v>       0.99989457       0.24117170       0.00568206 </v>
   <v>       0.75045652       0.25320497       0.24620045 </v>
   <v>       0.75704196       0.00538850       0.99911239 </v>
   <v>       0.50156933       0.00350105       0.24827871 </v>
   <v>       0.99997555       0.49049011       0.26034039 </v>
   <v>       0.49792681       0.74553988       0.99313753 </v>
   <v>       0.99861891       0.00688730       0.75360863 </v>
   <v>       0.74799695       0.25783297       0.74468775 </v>
   <v>       0.75654813       0.01070601       0.49568265 </v>
   <v>       0.50222649       0.25485230       0.50339658 </v>
   <v>       0.50438202       0.00085554       0.74939144 </v>
   <v>       0.00306150       0.99234558       0.25131351 </v>
   <v>       0.50121842       0.25372324       0.99636806 </v>
   <v>       0.24105174       0.74996588       0.24993603 </v>
   <v>       0.25513955       0.49960284       0.00567050 </v>
   <v>       0.99381775       0.75600660       0.00340160 </v>
   <v>       0.76208837       0.73850138       0.25304876 </v>
   <v>       0.74335728       0.50527255       0.99987927 </v>
   <v>       0.50359773       0.49908782       0.25276496 </v>
   <v>       0.25535910       0.25418926       0.75066530 </v>
   <v>       0.24018509       0.00222235       0.49335162 </v>
   <v>       0.99470514       0.24932931       0.50801971 </v>
   <v>       0.24997047       0.74417006       0.75239388 </v>
   <v>       0.25369759       0.49863996       0.49785256 </v>
   <v>       0.98724867       0.75134798       0.49636794 </v>
   <v>       0.99831931       0.50049092       0.74384844 </v>
   <v>       0.74609224       0.74067996       0.74163903 </v>
   <v>       0.74959577       0.50336637       0.50078490 </v>
   <v>       0.50788498       0.73929029       0.50613110 </v>
   <v>       0.50510272       0.50018345       0.74798377 </v>
   <v>       0.50300882       0.99990100       0.99531418 </v>
   <v>       0.99765659       0.50257603       0.01277184 </v>
   <v>       0.50585455       0.74548663       0.25048089 </v>
   <v>       0.23854305       0.99776415       0.74929455 </v>
   <v>       0.49970363       0.99545666       0.50235218 </v>
   <v>       0.76300639       0.00011183       0.73895190 </v>
   <v>       0.24396093       0.74589669       0.50165204 </v>
   <v>       0.99686057       0.76854748       0.26385879 </v>
   <v>       0.73702999       0.50380671       0.25320948 </v>
   <v>       0.00278486       0.00393626       0.48227724 </v>
   <v>       0.49822283       0.50553866       0.49869696 </v>
   <v>       0.73057418       0.50753797       0.75707698 </v>
   <v>       0.75317362       0.71860680       0.50715664 </v>
  </varray>
 </structure>
</modeling>
