HECN                                    
           1
    11.240000    0.000000    0.000000
     0.000000   11.240000    0.000000
     0.000000    0.000000   11.240000
   Ti   Mo   Hf   N    C    Zr   V 
     7     6     6    13    19     7     6
Direct configuration=     1
   0.00000000  0.00000000  0.00000000
   0.25000000  0.00000000  0.25000000
   0.25000000  0.50000000  0.25000000
   0.50000000  0.50000000  0.00000000
   0.50000000  0.25000000  0.75000004
   0.00000000  0.50000000  0.50000000
   0.50000000  0.75000004  0.75000004
   0.00000000  0.25000000  0.25000000
   0.75000004  0.75000004  0.00000000
   0.00000000  0.25000000  0.75000004
   0.75000004  0.25000000  0.50000000
   0.00000000  0.75000004  0.75000004
   0.25000000  0.50000000  0.75000004
   0.25000000  0.25000000  0.00000000
   0.50000000  0.25000000  0.25000000
   0.75000004  0.00000000  0.25000000
   0.75000004  0.25000000  0.00000000
   0.25000000  0.75000004  0.00000000
   0.25000000  0.25000000  0.50000000
   0.25000000  0.25000000  0.25000000
   0.25000000  0.00000000  0.00000000
   0.00000000  0.25000000  0.00000000
   0.75000004  0.25000000  0.25000000
   0.75000004  0.00000000  0.00000000
   0.50000000  0.00000000  0.25000000
   0.00000000  0.50000000  0.25000000
   0.50000000  0.75000004  0.00000000
   0.00000000  0.00000000  0.75000004
   0.75000004  0.25000000  0.75000004
   0.75000004  0.00000000  0.50000000
   0.50000000  0.25000000  0.50000000
   0.50000000  0.00000000  0.75000004
   0.00000000  0.00000000  0.25000000
   0.50000000  0.25000000  0.00000000
   0.25000000  0.75000004  0.25000000
   0.25000000  0.50000000  0.00000000
   0.00000000  0.75000004  0.00000000
   0.75000004  0.75000004  0.25000000
   0.75000004  0.50000000  0.00000000
   0.50000000  0.50000000  0.25000000
   0.25000000  0.25000000  0.75000004
   0.25000000  0.00000000  0.50000000
   0.00000000  0.25000000  0.50000000
   0.25000000  0.75000004  0.75000004
   0.25000000  0.50000000  0.50000000
   0.00000000  0.75000004  0.50000000
   0.00000000  0.50000000  0.75000004
   0.75000004  0.75000004  0.75000004
   0.75000004  0.50000000  0.50000000
   0.50000000  0.75000004  0.50000000
   0.50000000  0.50000000  0.75000004
   0.50000000  0.00000000  0.00000000
   0.00000000  0.50000000  0.00000000
   0.50000000  0.75000004  0.25000000
   0.25000000  0.00000000  0.75000004
   0.50000000  0.00000000  0.50000000
   0.75000004  0.00000000  0.75000004
   0.25000000  0.75000004  0.50000000
   0.00000000  0.75000004  0.25000000
   0.75000004  0.50000000  0.25000000
   0.00000000  0.00000000  0.50000000
   0.50000000  0.50000000  0.50000000
   0.75000004  0.50000000  0.75000004
   0.75000004  0.75000004  0.50000000
HECN                                    
           1
     8.209600    0.003050    0.001337
     0.003050    8.228348    0.002701
     0.001337    0.002701    8.207290
   Ti   Mo   Hf   N    C    Zr   V 
     7     6     6    13    19     7     6
Direct configuration=     2
   0.99943186  0.99816660  0.00134691
   0.24685965  0.99854654  0.25197515
   0.25068581  0.50141803  0.25027903
   0.50044079  0.49956961  0.99961509
   0.49865846  0.25283246  0.75053463
   0.99987953  0.50000983  0.50091997
   0.50008477  0.74728428  0.74845797
   0.99951956  0.24751980  0.25264219
   0.75318907  0.74701245  0.99974882
   0.00232685  0.25257791  0.74719995
   0.75317056  0.25280357  0.50046316
   0.99952731  0.74749590  0.74958621
   0.25023592  0.50012466  0.74953561
   0.24995109  0.25219075  0.99843004
   0.50036380  0.25296341  0.24966812
   0.75332290  0.99862597  0.25104576
   0.74976185  0.25243077  0.99958232
   0.24845320  0.74796895  0.99974637
   0.24850168  0.25059682  0.50151200
   0.25270770  0.24954298  0.24980833
   0.25177470  0.00042021  0.99876822
   0.00013763  0.25101953  0.00014840
   0.74754144  0.24693683  0.24790365
   0.74831878  0.00298853  0.00050319
   0.50258352  0.00119133  0.24963750
   0.00024654  0.49908679  0.24862505
   0.49733539  0.75197727  0.00139500
   0.99912012  0.00017436  0.75095144
   0.74967467  0.24731710  0.75222859
   0.74778439  0.00095659  0.49948308
   0.49780170  0.24757366  0.49746690
   0.50084835  0.00016111  0.75038538
   0.99794662  0.00140887  0.24953955
   0.50013010  0.24800270  0.00213835
   0.25159259  0.75041505  0.24894302
   0.24879344  0.49951051  0.99975367
   0.00075207  0.74934528  0.99905860
   0.74867503  0.75212628  0.24892915
   0.75102905  0.49862830  0.00006624
   0.50000474  0.49886534  0.24980719
   0.24955147  0.24921853  0.75022995
   0.25172845  0.00111785  0.50088394
   0.00016051  0.25018987  0.49998727
   0.24976300  0.75077134  0.75097131
   0.24949519  0.49896936  0.50049408
   0.00092964  0.74973118  0.50108363
   0.00056211  0.49992548  0.75062067
   0.75059227  0.75155501  0.75106466
   0.75037166  0.49855290  0.49997954
   0.49893092  0.75162460  0.49911361
   0.49927356  0.49993801  0.75014588
   0.50054795  0.00056732  0.99947549
   0.99958992  0.50132285  0.99954945
   0.50049116  0.74720194  0.25112319
   0.24808834  0.99987696  0.74820408
   0.49914732  0.99872769  0.50051792
   0.75213672  0.99870057  0.74890422
   0.24954205  0.74930801  0.50041720
   0.99941401  0.75159978  0.25030707
   0.74905479  0.50198178  0.25015360
   0.00103580  0.00019116  0.49847096
   0.50018271  0.50145188  0.50042734
   0.74972796  0.50179318  0.74986201
   0.75051990  0.74789646  0.50018380
HECN                                    
           1
     8.956987    0.002297    0.001008
     0.002297    8.971111    0.002035
     0.001008    0.002035    8.955247
   Ti   Mo   Hf   N    C    Zr   V 
     7     6     6    13    19     7     6
Direct configuration=     3
   0.99962355  0.99878435  0.00089174
   0.24791997  0.99903604  0.25130769
   0.25045443  0.50094041  0.25018498
   0.50029188  0.49971462  0.99974507
   0.49911184  0.25187810  0.75035431
   0.99992026  0.50000660  0.50060923
   0.50005572  0.74819906  0.74897853
   0.99968163  0.24835561  0.25174945
   0.75211185  0.74801934  0.99983350
   0.00154132  0.25170940  0.74814613
   0.75210036  0.25185950  0.50030721
   0.99968659  0.74833944  0.74972569
   0.25015625  0.50008264  0.74969250
   0.24996779  0.25145251  0.99896056
   0.50024131  0.25196505  0.24978057
   0.75220076  0.99908941  0.25069257
   0.74984256  0.25161177  0.99972366
   0.24897524  0.74865300  0.99983173
   0.24900777  0.25039573  0.50100129
   0.25179333  0.24969727  0.24987317
   0.25117543  0.00027873  0.99918441
   0.00009129  0.25067609  0.00009839
   0.74837113  0.24796827  0.24861125
   0.74888689  0.00198155  0.00033347
   0.50171128  0.00079025  0.24976022
   0.00016310  0.49939433  0.24908937
   0.49823547  0.75131097  0.00092389
   0.99941730  0.00011562  0.75063006
   0.74978433  0.24822117  0.75147555
   0.74853264  0.00063398  0.49965766
   0.49854355  0.24839054  0.49832210
   0.50056193  0.00010698  0.75025529
   0.99864013  0.00093392  0.24969512
   0.50008603  0.24867584  0.00141588
   0.25105482  0.75027532  0.24930017
   0.24920078  0.49967524  0.99983675
   0.00049799  0.74956586  0.99937654
   0.74912265  0.75140967  0.24929101
   0.75068142  0.49909056  0.00004377
   0.50000299  0.49924759  0.24987219
   0.24970284  0.24948177  0.75015218
   0.25114499  0.00074156  0.50058559
   0.00010633  0.25012592  0.49999160
   0.24984318  0.75051157  0.75064333
   0.24966555  0.49931657  0.50032705
   0.00061575  0.74982199  0.50071764
   0.00037233  0.49995073  0.75041107
   0.75039255  0.75103134  0.75070527
   0.75024599  0.49904047  0.49998631
   0.49929207  0.75107706  0.49941312
   0.49951885  0.49995882  0.75009658
   0.50036296  0.00037620  0.99965274
   0.99972853  0.50087708  0.99970175
   0.50032502  0.74814480  0.25074353
   0.24873374  0.99991797  0.74881057
   0.49943511  0.99915628  0.50034280
   0.75141501  0.99913849  0.74927432
   0.24969662  0.74954114  0.50027618
   0.99961210  0.75106079  0.25020350
   0.74937423  0.50131402  0.25010189
   0.00068598  0.00012672  0.49898749
   0.50012122  0.50096282  0.50028317
   0.74982005  0.50118901  0.74990882
   0.75034410  0.74860524  0.50012152
HECN                                    
           1
     8.900872    0.002354    0.001032
     0.002354    8.915343    0.002085
     0.001032    0.002085    8.899089
   Ti   Mo   Hf   N    C    Zr   V 
     7     6     6    13    19     7     6
Direct configuration=     4
   0.99961035  0.99874181  0.00092306
   0.24784700  0.99900232  0.25135361
   0.25047036  0.50097331  0.25019145
   0.50030212  0.49970463  0.99973613
   0.49908065  0.25194382  0.75036672
   0.99991746  0.50000683  0.50063061
   0.50005771  0.74813606  0.74894270
   0.99967047  0.24829805  0.25181088
   0.75218597  0.74795001  0.99982767
   0.00159538  0.25176921  0.74808103
   0.75217401  0.25192452  0.50031795
   0.99967562  0.74828134  0.74971608
   0.25016173  0.50008553  0.74968171
   0.24996665  0.25150334  0.99892406
   0.50024975  0.25203380  0.24977284
   0.75227798  0.99905750  0.25071687
   0.74983701  0.25166817  0.99971394
   0.24893931  0.74860589  0.99982585
   0.24897295  0.25040958  0.50103643
   0.25185625  0.24968665  0.24986871
   0.25121667  0.00028847  0.99915578
   0.00009448  0.25069974  0.00010184
   0.74831403  0.24789723  0.24856255
   0.74884780  0.00205089  0.00034515
   0.50177130  0.00081788  0.24975178
   0.00016884  0.49937315  0.24905742
   0.49817354  0.75135685  0.00095631
   0.99939685  0.00011966  0.75065217
   0.74977677  0.24815892  0.75152736
   0.74848115  0.00065619  0.49964565
   0.49849249  0.24833427  0.49826324
   0.50058164  0.00011071  0.75026424
   0.99859241  0.00096662  0.24968441
   0.50008906  0.24862949  0.00146559
   0.25109183  0.75028494  0.24927559
   0.24917275  0.49966389  0.99983103
   0.00051547  0.74955067  0.99935466
   0.74909185  0.75145901  0.24926611
   0.75070534  0.49905873  0.00004531
   0.50000311  0.49922126  0.24986771
   0.24969242  0.24946364  0.75015753
   0.25118515  0.00076748  0.50060613
   0.00011006  0.25013033  0.49999130
   0.24983766  0.75052946  0.75066590
   0.24965382  0.49929266  0.50033854
   0.00063736  0.74981574  0.50074282
   0.00038539  0.49994899  0.75042549
   0.75040630  0.75106741  0.75073001
   0.75025464  0.49900689  0.49998584
   0.49926722  0.75111476  0.49939251
   0.49950197  0.49995739  0.75009997
   0.50037570  0.00038937  0.99964055
   0.99971900  0.50090778  0.99969127
   0.50033645  0.74807988  0.25076965
   0.24868932  0.99991514  0.74876883
   0.49941531  0.99912677  0.50035485
   0.75146467  0.99910834  0.74924886
   0.24968598  0.74952509  0.50028588
   0.99959847  0.75109791  0.25021063
   0.74935225  0.50136001  0.25010545
   0.00071005  0.00013115  0.49895195
   0.50012546  0.50099650  0.50029310
   0.74981372  0.50123062  0.74990560
   0.75035620  0.74855643  0.50012580
HECN                                    
           1
     8.880533    0.002374    0.001041
     0.002374    8.895130    0.002103
     0.001041    0.002103    8.878735
   Ti   Mo   Hf   N    C    Zr   V 
     7     6     6    13    19     7     6
Direct configuration=     5
   0.99960554  0.99872629  0.00093448
   0.24782039  0.99899003  0.25137036
   0.25047617  0.50098531  0.25019381
   0.50030586  0.49970099  0.99973287
   0.49906927  0.25196779  0.75037125
   0.99991644  0.50000691  0.50063841
   0.50005844  0.74811308  0.74892964
   0.99966640  0.24827706  0.25183328
   0.75221301  0.74792472  0.99982555
   0.00161510  0.25179102  0.74805729
   0.75220088  0.25194824  0.50032187
   0.99967162  0.74826016  0.74971258
   0.25016373  0.50008659  0.74967777
   0.24996623  0.25152188  0.99891075
   0.50025283  0.25205888  0.24977002
   0.75230615  0.99904587  0.25072574
   0.74983499  0.25168874  0.99971039
   0.24892620  0.74858871  0.99982370
   0.24896025  0.25041463  0.50104925
   0.25187920  0.24968278  0.24986708
   0.25123171  0.00029203  0.99914533
   0.00009565  0.25070836  0.00010309
   0.74829320  0.24787132  0.24854478
   0.74883355  0.00207618  0.00034942
   0.50179320  0.00082796  0.24974870
   0.00017093  0.49936542  0.24904577
   0.49815095  0.75137358  0.00096814
   0.99938939  0.00012114  0.75066024
   0.74977402  0.24813621  0.75154626
   0.74846237  0.00066429  0.49964127
   0.49847387  0.24831375  0.49824177
   0.50058883  0.00011207  0.75026751
   0.99857500  0.00097855  0.24968051
   0.50009017  0.24861259  0.00148372
   0.25110532  0.75028845  0.24926663
   0.24916252  0.49965975  0.99982894
   0.00052185  0.74954513  0.99934668
   0.74908061  0.75147701  0.24925703
   0.75071406  0.49904712  0.00004588
   0.50000315  0.49921166  0.24986608
   0.24968862  0.24945703  0.75015948
   0.25119980  0.00077694  0.50061362
   0.00011142  0.25013193  0.49999120
   0.24983565  0.75053598  0.75067413
   0.24964954  0.49928394  0.50034274
   0.00064523  0.74981347  0.50075201
   0.00039016  0.49994836  0.75043075
   0.75041131  0.75108056  0.75073903
   0.75025779  0.49899465  0.49998567
   0.49925816  0.75112851  0.49938500
   0.49949582  0.49995686  0.75010120
   0.50038034  0.00039417  0.99963610
   0.99971552  0.50091897  0.99968745
   0.50034062  0.74805620  0.25077918
   0.24867312  0.99991411  0.74875361
   0.49940808  0.99911600  0.50035924
   0.75148279  0.99909734  0.74923957
   0.24968210  0.74951923  0.50028942
   0.99959350  0.75111144  0.25021323
   0.74934423  0.50137678  0.25010675
   0.00071883  0.00013277  0.49893899
   0.50012700  0.50100878  0.50029672
   0.74981141  0.50124579  0.74990443
   0.75036061  0.74853863  0.50012736
HECN                                    
           1
     8.833286    0.009300   -0.002471
     0.009298    8.896267    0.001797
    -0.002469    0.001811    8.831459
   Ti   Mo   Hf   N    C    Zr   V 
     7     6     6    13    19     7     6
Direct configuration=     6
   0.99880413  0.99645814  0.00420003
   0.24096829  0.99833137  0.25311746
   0.25087623  0.50218311  0.25096581
   0.50218034  0.50149972  0.99829432
   0.49708359  0.25818999  0.74940349
   0.99810806  0.50033831  0.50001359
   0.50186329  0.74152401  0.74751721
   0.99836547  0.24164087  0.25690596
   0.75746009  0.74232228  0.99942140
   0.00628118  0.25676203  0.74302410
   0.75772746  0.25834337  0.50127132
   0.99646607  0.74341935  0.74825472
   0.25320913  0.49892518  0.74852013
   0.24630907  0.25179370  0.00020301
   0.50047780  0.25657171  0.25249032
   0.75904073  0.99768550  0.25453670
   0.75258997  0.25596112  0.99798482
   0.24787242  0.74893531  0.00047224
   0.24754250  0.25272773  0.49972273
   0.25165891  0.24914129  0.25038945
   0.24596174  0.00090686  0.00471673
   0.00073466  0.24547020  0.00037473
   0.74835629  0.25118384  0.25000113
   0.75447584  0.00329658  0.00189148
   0.50048888  0.00338040  0.24908812
   0.99845618  0.50163039  0.25515924
   0.49782200  0.74597606  0.99536859
   0.99738447  0.00021664  0.75086104
   0.74669271  0.25312249  0.74980862
   0.75463857  0.99829833  0.49801945
   0.49904729  0.25382417  0.50125355
   0.50265522  0.00035893  0.75082292
   0.00335961  0.99828053  0.25102722
   0.50026787  0.25341183  0.99750785
   0.24415489  0.75081335  0.24795637
   0.25407399  0.49892794  0.00174297
   0.99726360  0.75582559  0.00211651
   0.75654857  0.74451547  0.25228336
   0.74504581  0.50237510  0.00000288
   0.50237567  0.49770924  0.25153111
   0.25156325  0.25351604  0.74951515
   0.24378805  0.00269745  0.49355799
   0.99595488  0.24949288  0.50025971
   0.25200164  0.74603624  0.75181121
   0.24958418  0.49768925  0.49904742
   0.99305087  0.75089432  0.49824353
   0.99620025  0.50012304  0.74305165
   0.74836303  0.74266081  0.74750317
   0.74961092  0.50155378  0.50029990
   0.50666981  0.74323420  0.50639231
   0.50360278  0.50010189  0.74818151
   0.50028863  0.99874851  0.99806977
   0.99716163  0.50208733  0.00209342
   0.50251697  0.74307606  0.25077388
   0.24334268  0.00047323  0.74880939
   0.50052080  0.99865793  0.50183206
   0.75659352  0.99796549  0.74536763
   0.24673739  0.74673183  0.49966060
   0.99781697  0.75618182  0.25097748
   0.74774705  0.50486105  0.25084365
   0.00142651  0.00137654  0.49416563
   0.50226140  0.50222766  0.50157453
   0.74664211  0.50488287  0.74899062
   0.75186677  0.74245238  0.50073581
HECN                                    
           1
     8.813341    0.012224   -0.003954
     0.012220    8.896747    0.001668
    -0.003951    0.001688    8.811502
   Ti   Mo   Hf   N    C    Zr   V 
     7     6     6    13    19     7     6
Direct configuration=     7
   0.99846530  0.99550107  0.00558579
   0.23806072  0.99805565  0.25385778
   0.25104576  0.50268858  0.25129354
   0.50297505  0.50225831  0.99768413
   0.49623863  0.26081700  0.74899252
   0.99734036  0.50047878  0.49974811
   0.50263122  0.73874219  0.74691797
   0.99781639  0.23884027  0.25905853
   0.75968877  0.73995577  0.99925068
   0.00825901  0.25885865  0.74088883
   0.76007102  0.26104091  0.50167530
   0.99510696  0.74137711  0.74763538
   0.25450180  0.49843393  0.74802932
   0.24475707  0.25190966  0.00075085
   0.50057224  0.25847652  0.25364494
   0.76190002  0.99710911  0.25615522
   0.75375750  0.25776354  0.99725301
   0.24742518  0.74908197  0.00074731
   0.24693981  0.25370454  0.49915955
   0.25156569  0.24891281  0.25061111
   0.24372586  0.00116819  0.00708040
   0.00100764  0.24325899  0.00049005
   0.74838222  0.25258204  0.25061928
   0.75687033  0.00380986  0.00254691
   0.49993436  0.00445820  0.24880758
   0.99772871  0.50258707  0.25775360
   0.49768324  0.74369783  0.99299196
   0.99653357  0.00025762  0.75094593
   0.74538303  0.25522817  0.74907071
   0.75726031  0.99729761  0.49733214
   0.49928933  0.25614994  0.50253194
   0.50353222  0.00046245  0.75105899
   0.00539135  0.99714015  0.25159954
   0.50034104  0.25543745  0.99582055
   0.24120468  0.75103719  0.24739912
   0.25615902  0.49861745  0.00255612
   0.99587917  0.75847765  0.00329159
   0.75972083  0.74157460  0.25356892
   0.74263906  0.50378170  0.99998372
   0.50338336  0.49707432  0.25223814
   0.25235740  0.25522869  0.74924206
   0.24064063  0.00351045  0.49056229
   0.99419107  0.24922452  0.50037296
   0.25292258  0.74413622  0.75229409
   0.24955676  0.49701615  0.49849764
   0.98982699  0.75135302  0.49717764
   0.99442072  0.50019807  0.73991920
   0.74749596  0.73910751  0.74612937
   0.74933559  0.50263419  0.50043318
   0.50981916  0.73989969  0.50936741
   0.50534543  0.50016172  0.74736747
   0.50024999  0.99805389  0.99740497
   0.99607776  0.50258137  0.00311412
   0.50344227  0.74097326  0.25077193
   0.24108023  0.00071100  0.74883217
   0.50099345  0.99846423  0.50245731
   0.75876227  0.99748600  0.74372519
   0.24548845  0.74555625  0.49939319
   0.99706145  0.75832261  0.25130161
   0.74706816  0.50633229  0.25115617
   0.00172564  0.00190123  0.49213992
   0.50316707  0.50274145  0.50211723
   0.74529568  0.50641910  0.74860231
   0.75250812  0.73988291  0.50099421
HECN                                    
           1
     8.929580   -0.006361    0.007878
    -0.006483    8.972473   -0.000919
     0.007871   -0.000887    8.910917
   Ti   Mo   Hf   N    C    Zr   V 
     7     6     6    13    19     7     6
Direct configuration=     8
   0.99701390  0.99539967  0.00897696
   0.23810258  0.99786003  0.25439705
   0.25158988  0.50412309  0.25141614
   0.50178437  0.50300434  0.99692995
   0.49355389  0.26434608  0.74912356
   0.99626352  0.50093125  0.49692153
   0.50469405  0.73570101  0.74713232
   0.99520964  0.23400799  0.26217454
   0.76044773  0.73807575  0.99867497
   0.01229286  0.26714308  0.73816995
   0.76181782  0.26685501  0.50110255
   0.99098221  0.73433579  0.74586601
   0.25798842  0.49750084  0.74798226
   0.24470764  0.25292624  0.00195556
   0.50262234  0.25612489  0.25253935
   0.75990898  0.99639780  0.25632290
   0.75369738  0.25963813  0.99549957
   0.24491287  0.74721102  0.99995815
   0.24555795  0.25337510  0.49831133
   0.25045807  0.24931219  0.25115127
   0.24207835  0.00103061  0.00852354
   0.00012877  0.24110589  0.00115025
   0.74958593  0.25413173  0.25209914
   0.75911562  0.00484884  0.00269665
   0.50112290  0.00435010  0.24889983
   0.99635511  0.50213013  0.25971138
   0.49788864  0.74196169  0.99178265
   0.99770197  0.00105973  0.75130194
   0.74428128  0.25732375  0.74711797
   0.75997481  0.99675349  0.49735470
   0.49998044  0.25787509  0.50499533
   0.50411724  0.00073931  0.75082257
   0.00651862  0.99361093  0.25254393
   0.50087094  0.25569356  0.99469568
   0.23945754  0.74995539  0.24872345
   0.25573810  0.49912357  0.00413901
   0.99612550  0.75841156  0.00444092
   0.76213144  0.73823763  0.25496792
   0.74272345  0.50456634  0.00019723
   0.50479429  0.49909877  0.25334643
   0.25402625  0.25521565  0.74875740
   0.23847581  0.00263562  0.49035555
   0.99523162  0.24922693  0.50136976
   0.25322217  0.74316674  0.75123370
   0.24910875  0.49834028  0.49726379
   0.98696058  0.75211281  0.49614219
   0.99231697  0.49932036  0.73954034
   0.74668547  0.73600186  0.74472456
   0.74900675  0.50438692  0.50042595
   0.51057588  0.73743746  0.50890751
   0.50703397  0.49979107  0.74612844
   0.50255387  0.99936119  0.99815479
   0.99707325  0.50467355  0.00410667
   0.50521485  0.74337100  0.25209932
   0.23954119  0.00009782  0.74661318
   0.49965983  0.99628392  0.50169787
   0.75929981  0.99518072  0.74288830
   0.24465684  0.74599279  0.50039089
   0.99661003  0.76317939  0.25300456
   0.74517702  0.50919733  0.25180231
   0.00278437  0.00270993  0.48724220
   0.50502947  0.50394785  0.50331423
   0.74156350  0.51062165  0.74755324
   0.75389539  0.73147045  0.50216745
HECN                                    
           1
     8.901962   -0.001945    0.005067
    -0.002039    8.954480   -0.000304
     0.005063   -0.000275    8.887296
   Ti   Mo   Hf   N    C    Zr   V 
     7     6     6    13    19     7     6
Direct configuration=     9
   0.99735537  0.99542404  0.00817977
   0.23809303  0.99790606  0.25427038
   0.25146161  0.50378485  0.25138741
   0.50206299  0.50282922  0.99710672
   0.49418177  0.26351596  0.74909169
   0.99651494  0.50082537  0.49758526
   0.50421188  0.73641647  0.74708281
   0.99582431  0.23514751  0.26144196
   0.76027051  0.73851834  0.99881060
   0.01134194  0.26518954  0.73880944
   0.76140513  0.26548443  0.50123726
   0.99195243  0.73599681  0.74628091
   0.25717124  0.49771897  0.74799447
   0.24471910  0.25268668  0.00167243
   0.50214240  0.25667799  0.25279991
   0.76037630  0.99656635  0.25628293
   0.75371000  0.25919664  0.99591139
   0.24550270  0.74765308  0.00014291
   0.24588190  0.25345345  0.49851021
   0.25071779  0.24921861  0.25102399
   0.24246522  0.00106373  0.00818397
   0.00033614  0.24161353  0.00099501
   0.74930334  0.25376595  0.25175172
   0.75858862  0.00460295  0.00266210
   0.50084426  0.00437498  0.24887854
   0.99667806  0.50223832  0.25925100
   0.49784096  0.74237069  0.99206696
   0.99742768  0.00087017  0.75121861
   0.74453799  0.25683071  0.74757627
   0.75933852  0.99688035  0.49735029
   0.49981829  0.25746815  0.50441666
   0.50397984  0.00067381  0.75087828
   0.00625631  0.99444177  0.25232264
   0.50074620  0.25563304  0.99496011
   0.23986820  0.75021102  0.24841183
   0.25583705  0.49900443  0.00376695
   0.99606813  0.75842694  0.00417097
   0.76156823  0.73902252  0.25464021
   0.74270334  0.50438143  0.00014704
   0.50446276  0.49862105  0.25308635
   0.25363475  0.25521794  0.74887179
   0.23898384  0.00284280  0.49040351
   0.99498792  0.24922578  0.50113589
   0.25315207  0.74339507  0.75148300
   0.24921277  0.49802863  0.49755345
   0.98763207  0.75193528  0.49638452
   0.99281063  0.49952820  0.73962875
   0.74687664  0.73673402  0.74505458
   0.74908299  0.50397415  0.50042742
   0.51039951  0.73801720  0.50901597
   0.50663780  0.49987765  0.74642010
   0.50201319  0.99905202  0.99797925
   0.99683907  0.50418009  0.00387364
   0.50479839  0.74280515  0.25178784
   0.23990172  0.00024318  0.74713409
   0.49997341  0.99679829  0.50187603
   0.75917463  0.99572362  0.74308525
   0.24485195  0.74589028  0.50015619
   0.99671401  0.76203528  0.25260398
   0.74561928  0.50852323  0.25164972
   0.00253416  0.00251922  0.48839318
   0.50459250  0.50366264  0.50303350
   0.74243630  0.50963346  0.74779826
   0.75357461  0.73345160  0.50189281
HECN                                    
           1
     8.887471   -0.020733    0.018262
    -0.020941    8.920097   -0.002047
     0.018242   -0.002012    8.861482
   Ti   Mo   Hf   N    C    Zr   V 
     7     6     6    13    19     7     6
Direct configuration=    10
   0.99607153  0.99612476  0.01174260
   0.23985574  0.99730771  0.25420804
   0.25292425  0.50558234  0.25176341
   0.50039477  0.50371239  0.99712680
   0.49143020  0.26524634  0.74889711
   0.99587692  0.50126172  0.49339237
   0.50658957  0.73522378  0.74755249
   0.99226396  0.23083151  0.26390847
   0.76091013  0.73774412  0.99742913
   0.01619311  0.27637986  0.73790946
   0.76237204  0.27277787  0.49895162
   0.98657208  0.72695337  0.74411987
   0.26119602  0.49713200  0.74754309
   0.24505632  0.25316829  0.00237869
   0.50445553  0.25506137  0.25175425
   0.75795061  0.99590309  0.25599619
   0.75341907  0.26073607  0.99340077
   0.24373728  0.74672844  0.99932380
   0.24577466  0.25338532  0.49792424
   0.24953156  0.24948165  0.25145428
   0.24259476  0.00076702  0.00766435
   0.99933569  0.24079477  0.00201597
   0.75081548  0.25402254  0.25286424
   0.75905832  0.00578945  0.00218120
   0.50296832  0.00382338  0.24921412
   0.99575701  0.50020639  0.25947323
   0.49774002  0.74232711  0.99279956
   0.99843529  0.00195982  0.75175628
   0.74478663  0.25692240  0.74574777
   0.75994463  0.99794965  0.49805335
   0.50042446  0.25739437  0.50554123
   0.50428609  0.00078793  0.75040054
   0.00448444  0.99131693  0.25291286
   0.50131159  0.25441902  0.99559600
   0.24018935  0.74886993  0.24968852
   0.25398747  0.49948520  0.00507945
   0.99651970  0.75670754  0.00448197
   0.76191585  0.73765877  0.25491528
   0.74447783  0.50449744  0.00042210
   0.50552182  0.50032467  0.25388136
   0.25423804  0.25390963  0.74860266
   0.23906660  0.00163978  0.49217396
   0.99676740  0.24931620  0.50256147
   0.25250833  0.74339833  0.75046488
   0.24893671  0.49949930  0.49686153
   0.98694458  0.75241024  0.49612321
   0.99236398  0.49834550  0.74132699
   0.74648097  0.73661409  0.74469709
   0.74908230  0.50479826  0.50030878
   0.50881461  0.73759066  0.50653460
   0.50651664  0.49962858  0.74595066
   0.50391157  0.00040851  0.99758049
   0.99788567  0.50501894  0.00557878
   0.50559994  0.74560789  0.25254360
   0.23972801  0.99904251  0.74623795
   0.49876048  0.99478476  0.50208138
   0.75938515  0.99285159  0.74270480
   0.24381990  0.74616577  0.50131472
   0.99692119  0.76686629  0.25559262
   0.74284198  0.51086526  0.25219374
   0.00361586  0.00255446  0.48324251
   0.50558825  0.50515860  0.50336517
   0.73832752  0.51319269  0.74706294
   0.75476486  0.72356650  0.50343010
HECN                                    
           1
     8.888880   -0.018906    0.016979
    -0.019103    8.923440   -0.001878
     0.016961   -0.001844    8.863992
   Ti   Mo   Hf   N    C    Zr   V 
     7     6     6    13    19     7     6
Direct configuration=    11
   0.99619693  0.99605657  0.01139498
   0.23968419  0.99736575  0.25421438
   0.25278149  0.50540660  0.25172693
   0.50055706  0.50362654  0.99712458
   0.49169778  0.26507802  0.74891565
   0.99593835  0.50121934  0.49380112
   0.50635833  0.73533969  0.74750706
   0.99261194  0.23125345  0.26366752
   0.76084780  0.73781958  0.99756394
   0.01571821  0.27528667  0.73799771
   0.76227603  0.27206586  0.49917449
   0.98709762  0.72783718  0.74432999
   0.26080412  0.49718847  0.74758770
   0.24502348  0.25312120  0.00230987
   0.50423044  0.25521870  0.25185658
   0.75818694  0.99596833  0.25602381
   0.75344672  0.26058592  0.99364552
   0.24390929  0.74681907  0.99940344
   0.24578504  0.25339200  0.49798136
   0.24964709  0.24945621  0.25141214
   0.24258213  0.00079596  0.00771504
   0.99943343  0.24087487  0.00191629
   0.75066833  0.25399716  0.25275597
   0.75901226  0.00567356  0.00222814
   0.50276163  0.00387678  0.24918171
   0.99584716  0.50040490  0.25945147
   0.49774997  0.74233137  0.99272810
   0.99833701  0.00185325  0.75170398
   0.74476213  0.25691344  0.74592610
   0.75988548  0.99784514  0.49798486
   0.50036560  0.25740142  0.50543166
   0.50425618  0.00077673  0.75044717
   0.00465773  0.99162228  0.25285511
   0.50125687  0.25453739  0.99553409
   0.24015854  0.74900073  0.24956410
   0.25416768  0.49943863  0.00495119
   0.99647612  0.75687526  0.00445175
   0.76188232  0.73779180  0.25488854
   0.74430504  0.50448574  0.00039553
   0.50541844  0.50015816  0.25380396
   0.25417952  0.25403721  0.74862901
   0.23905905  0.00175715  0.49200135
   0.99659429  0.24930698  0.50242272
   0.25257087  0.74339816  0.75056406
   0.24896319  0.49935583  0.49692893
   0.98701140  0.75236403  0.49614858
   0.99240797  0.49846099  0.74116135
   0.74651948  0.73662588  0.74473190
   0.74908218  0.50471783  0.50032034
   0.50896869  0.73763266  0.50677633
   0.50652842  0.49965292  0.74599642
   0.50372635  0.00027573  0.99761962
   0.99778382  0.50493682  0.00541265
   0.50552141  0.74533416  0.25246997
   0.23974505  0.99915975  0.74632533
   0.49887905  0.99498153  0.50206122
   0.75936519  0.99313187  0.74274198
   0.24392052  0.74613907  0.50120160
   0.99690044  0.76639467  0.25530113
   0.74311205  0.51063723  0.25214025
   0.00350977  0.00255089  0.48374492
   0.50549102  0.50501238  0.50333294
   0.73872682  0.51284616  0.74713398
   0.75465122  0.72453104  0.50328056
HECN                                    
           1
     8.865913   -0.013408    0.017085
    -0.013471    8.954055   -0.000889
     0.017066   -0.000862    8.841856
   Ti   Mo   Hf   N    C    Zr   V 