  64  64   0   0
  0.1129557E+02  0.8932500E-09  0.9055600E-09  0.8937200E-09  0.5000000E-15
  1.000000000000000E-004
  CAR 
 HECN                                    
     13.39025844    -61.00256234  301      7.46436178      1.00000000
    -61.003  0.0000E+00  0.0000E+00
    -60.755  0.0000E+00  0.0000E+00
    -60.507  0.0000E+00  0.0000E+00
    -60.259  0.0000E+00  0.0000E+00
    -60.011  0.0000E+00  0.0000E+00
    -59.763  0.0000E+00  0.0000E+00
    -59.515  0.0000E+00  0.0000E+00
    -59.267  0.0000E+00  0.0000E+00
    -59.019  0.0000E+00  0.0000E+00
    -58.771  0.0000E+00  0.0000E+00
    -58.523  0.0000E+00  0.0000E+00
    -58.275  0.0000E+00  0.0000E+00
    -58.027  0.3846E-09  0.9538E-10
    -57.779  0.1053E-02  0.2611E-03
    -57.531  0.1488E+00  0.3715E-01
    -57.283  0.2863E+00  0.1082E+00
    -57.035  0.4773E-01  0.1200E+00
    -56.787  0.1803E-04  0.1200E+00
    -56.539  0.9061E-13  0.1200E+00
    -56.291  0.0000E+00  0.1200E+00
    -56.043  0.0000E+00  0.1200E+00
    -55.795  0.0000E+00  0.1200E+00
    -55.547  0.0000E+00  0.1200E+00
    -55.299  0.0000E+00  0.1200E+00
    -55.051  0.0000E+00  0.1200E+00
    -54.803  0.0000E+00  0.1200E+00
    -54.555  0.0000E+00  0.1200E+00
    -54.307  0.0000E+00  0.1200E+00
    -54.059  0.0000E+00  0.1200E+00
    -53.811  0.0000E+00  0.1200E+00
    -53.563  0.0000E+00  0.1200E+00
    -53.315  0.0000E+00  0.1200E+00
    -53.067  0.0000E+00  0.1200E+00
    -52.819  0.0000E+00  0.1200E+00
    -52.571  0.0000E+00  0.1200E+00
    -52.323  0.0000E+00  0.1200E+00
    -52.075  0.0000E+00  0.1200E+00
    -51.827  0.0000E+00  0.1200E+00
    -51.579  0.0000E+00  0.1200E+00
    -51.331  0.0000E+00  0.1200E+00
    -51.084  0.0000E+00  0.1200E+00
    -50.836  0.0000E+00  0.1200E+00
    -50.588  0.0000E+00  0.1200E+00
    -50.340  0.0000E+00  0.1200E+00
    -50.092  0.0000E+00  0.1200E+00
    -49.844  0.0000E+00  0.1200E+00
    -49.596  0.0000E+00  0.1200E+00
    -49.348  0.0000E+00  0.1200E+00
    -49.100  0.0000E+00  0.1200E+00
    -48.852  0.0000E+00  0.1200E+00
    -48.604  0.0000E+00  0.1200E+00
    -48.356  0.0000E+00  0.1200E+00
    -48.108  0.0000E+00  0.1200E+00
    -47.860  0.0000E+00  0.1200E+00
    -47.612  0.0000E+00  0.1200E+00
    -47.364  0.0000E+00  0.1200E+00
    -47.116  0.0000E+00  0.1200E+00
    -46.868  0.0000E+00  0.1200E+00
    -46.620  0.0000E+00  0.1200E+00
    -46.372  0.0000E+00  0.1200E+00
    -46.124  0.0000E+00  0.1200E+00
    -45.876  0.0000E+00  0.1200E+00
    -45.628  0.0000E+00  0.1200E+00
    -45.380  0.0000E+00  0.1200E+00
    -45.132  0.0000E+00  0.1200E+00
    -44.884  0.0000E+00  0.1200E+00
    -44.636  0.0000E+00  0.1200E+00
    -44.388  0.0000E+00  0.1200E+00
    -44.140  0.0000E+00  0.1200E+00
    -43.892  0.0000E+00  0.1200E+00
    -43.644  0.0000E+00  0.1200E+00
    -43.396  0.0000E+00  0.1200E+00
    -43.148  0.0000E+00  0.1200E+00
    -42.900  0.0000E+00  0.1200E+00
    -42.652  0.0000E+00  0.1200E+00
    -42.404  0.0000E+00  0.1200E+00
    -42.156  0.1826E-13  0.1200E+00
    -41.908  0.8886E-05  0.1200E+00
    -41.660  0.5720E-01  0.1342E+00
    -41.412  0.1811E+00  0.1791E+00
    -41.164  0.2611E-01  0.1856E+00
    -40.917  0.2135E+00  0.2385E+00
    -40.669  0.6458E-01  0.2545E+00
    -40.421  0.2203E-01  0.2600E+00
    -40.173  0.1594E-05  0.2600E+00
    -39.925  0.1044E-14  0.2600E+00
    -39.677  0.0000E+00  0.2600E+00
    -39.429  0.0000E+00  0.2600E+00
    -39.181  0.0000E+00  0.2600E+00
    -38.933  0.0000E+00  0.2600E+00
    -38.685  0.0000E+00  0.2600E+00
    -38.437  0.0000E+00  0.2600E+00
    -38.189  0.0000E+00  0.2600E+00
    -37.941  0.0000E+00  0.2600E+00
    -37.693  0.0000E+00  0.2600E+00
    -37.445  0.0000E+00  0.2600E+00
    -37.197  0.0000E+00  0.2600E+00
    -36.949  0.2686E-16  0.2600E+00
    -36.701  0.1936E-06  0.2600E+00
    -36.453  0.1169E-01  0.2629E+00
    -36.205  0.2262E+00  0.3190E+00
    -35.957  0.9791E+00  0.5618E+00
    -35.709  0.2344E+00  0.6199E+00
    -35.461  0.3834E-03  0.6200E+00
    -35.213  0.2100E-10  0.6200E+00
    -34.965  0.0000E+00  0.6200E+00
    -34.717  0.0000E+00  0.6200E+00
    -34.469  0.0000E+00  0.6200E+00
    -34.221  0.0000E+00  0.6200E+00
    -33.973  0.0000E+00  0.6200E+00
    -33.725  0.0000E+00  0.6200E+00
    -33.477  0.0000E+00  0.6200E+00
    -33.229  0.0000E+00  0.6200E+00
    -32.981  0.0000E+00  0.6200E+00
    -32.733  0.0000E+00  0.6200E+00
    -32.485  0.2836E-15  0.6200E+00
    -32.237  0.9634E-06  0.6200E+00
    -31.989  0.3861E-01  0.6296E+00
    -31.741  0.6553E+00  0.7921E+00
    -31.493  0.1063E+01  0.1056E+01
    -31.245  0.9202E+00  0.1284E+01
    -30.997  0.2253E+00  0.1340E+01
    -30.749  0.1425E-02  0.1340E+01
    -30.502  0.7384E-09  0.1340E+01
    -30.254  0.0000E+00  0.1340E+01
    -30.006  0.0000E+00  0.1340E+01
    -29.758  0.0000E+00  0.1340E+01
    -29.510  0.0000E+00  0.1340E+01
    -29.262  0.0000E+00  0.1340E+01
    -29.014  0.0000E+00  0.1340E+01
    -28.766  0.0000E+00  0.1340E+01
    -28.518  0.0000E+00  0.1340E+01
    -28.270  0.0000E+00  0.1340E+01
    -28.022  0.0000E+00  0.1340E+01
    -27.774  0.0000E+00  0.1340E+01
    -27.526  0.0000E+00  0.1340E+01
    -27.278  0.0000E+00  0.1340E+01
    -27.030  0.0000E+00  0.1340E+01
    -26.782  0.0000E+00  0.1340E+01
    -26.534  0.0000E+00  0.1340E+01
    -26.286  0.0000E+00  0.1340E+01
    -26.038  0.0000E+00  0.1340E+01
    -25.790  0.0000E+00  0.1340E+01
    -25.542  0.0000E+00  0.1340E+01
    -25.294  0.0000E+00  0.1340E+01
    -25.046  0.0000E+00  0.1340E+01
    -24.798  0.0000E+00  0.1340E+01
    -24.550  0.0000E+00  0.1340E+01
    -24.302  0.0000E+00  0.1340E+01
    -24.054  0.6764E-13  0.1340E+01
    -23.806  0.1843E-04  0.1340E+01
    -23.558  0.7752E-01  0.1359E+01
    -23.310  0.2335E+00  0.1417E+01
    -23.062  0.8151E+00  0.1619E+01
    -22.814  0.5114E+00  0.1746E+01
    -22.566  0.5604E-01  0.1760E+01
    -22.318  0.2233E-04  0.1760E+01
    -22.070  0.1353E-12  0.1760E+01
    -21.822  0.0000E+00  0.1760E+01
    -21.574  0.0000E+00  0.1760E+01
    -21.326  0.0000E+00  0.1760E+01
    -21.078  0.0000E+00  0.1760E+01
    -20.830  0.0000E+00  0.1760E+01
    -20.582  0.9074E-08  0.1760E+01
    -20.334  0.3825E-02  0.1761E+01
    -20.087  0.1091E+00  0.1788E+01
    -19.839  0.3996E+00  0.1887E+01
    -19.591  0.2175E+00  0.1941E+01
    -19.343  0.5843E+00  0.2086E+01
    -19.095  0.2671E+00  0.2152E+01
    -18.847  0.1123E+00  0.2180E+01
    -18.599  0.5398E-04  0.2180E+01
    -18.351  0.3994E-12  0.2180E+01
    -18.103  0.0000E+00  0.2180E+01
    -17.855  0.0000E+00  0.2180E+01
    -17.607  0.0000E+00  0.2180E+01
    -17.359  0.0000E+00  0.2180E+01
    -17.111  0.0000E+00  0.2180E+01
    -16.863  0.0000E+00  0.2180E+01
    -16.615  0.0000E+00  0.2180E+01
    -16.367  0.0000E+00  0.2180E+01
    -16.119  0.0000E+00  0.2180E+01
    -15.871  0.0000E+00  0.2180E+01
    -15.623  0.0000E+00  0.2180E+01
    -15.375  0.0000E+00  0.2180E+01
    -15.127  0.0000E+00  0.2180E+01
    -14.879  0.0000E+00  0.2180E+01
    -14.631  0.0000E+00  0.2180E+01
    -14.383  0.0000E+00  0.2180E+01
    -14.135  0.0000E+00  0.2180E+01
    -13.887  0.0000E+00  0.2180E+01
    -13.639  0.0000E+00  0.2180E+01
    -13.391  0.0000E+00  0.2180E+01
    -13.143  0.0000E+00  0.2180E+01
    -12.895  0.0000E+00  0.2180E+01
    -12.647  0.0000E+00  0.2180E+01
    -12.399  0.0000E+00  0.2180E+01
    -12.151  0.0000E+00  0.2180E+01
    -11.903  0.0000E+00  0.2180E+01
    -11.655  0.0000E+00  0.2180E+01
    -11.407  0.0000E+00  0.2180E+01
    -11.159  0.0000E+00  0.2180E+01
    -10.911  0.0000E+00  0.2180E+01
    -10.663  0.0000E+00  0.2180E+01
    -10.415  0.0000E+00  0.2180E+01
    -10.167  0.0000E+00  0.2180E+01
     -9.919  0.0000E+00  0.2180E+01
     -9.672  0.0000E+00  0.2180E+01
     -9.424  0.0000E+00  0.2180E+01
     -9.176  0.3316E-18  0.2180E+01
     -8.928  0.4039E-08  0.2180E+01
     -8.680  0.6911E-03  0.2180E+01
     -8.432  0.5209E-01  0.2193E+01
     -8.184  0.3840E-01  0.2203E+01
     -7.936  0.1554E+00  0.2241E+01
     -7.688  0.1131E+00  0.2269E+01
     -7.440  0.1440E+00  0.2305E+01
     -7.192  0.1484E+00  0.2342E+01
     -6.944  0.2130E+00  0.2395E+01
     -6.696  0.1736E+00  0.2438E+01
     -6.448  0.9707E-02  0.2440E+01
     -6.200  0.1147E-06  0.2440E+01
     -5.952  0.7116E-10  0.2440E+01
     -5.704  0.1906E-03  0.2440E+01
     -5.456  0.3796E-01  0.2449E+01
     -5.208  0.4233E-01  0.2460E+01
     -4.960  0.1419E-01  0.2463E+01
     -4.712  0.1107E+00  0.2491E+01
     -4.464  0.1014E+00  0.2516E+01
     -4.216  0.1524E+00  0.2554E+01
     -3.968  0.2191E+00  0.2608E+01
     -3.720  0.1993E+00  0.2658E+01
     -3.472  0.1388E+00  0.2692E+01
     -3.224  0.1622E+00  0.2732E+01
     -2.976  0.1541E+00  0.2770E+01
     -2.728  0.1175E+00  0.2800E+01
     -2.480  0.6752E-01  0.2816E+01
     -2.232  0.1479E-01  0.2820E+01
     -1.984  0.3106E-04  0.2820E+01
     -1.736  0.5912E-11  0.2820E+01
     -1.488  0.0000E+00  0.2820E+01
     -1.240  0.0000E+00  0.2820E+01
     -0.992  0.3615E-16  0.2820E+01
     -0.744  0.7195E-07  0.2820E+01
     -0.496  0.1392E-02  0.2820E+01
     -0.248  0.9971E-02  0.2823E+01
     -0.000  0.5900E-01  0.2837E+01
      0.248  0.9674E-01  0.2861E+01
      0.496  0.1501E+00  0.2899E+01
      0.743  0.1541E+00  0.2937E+01
      0.991  0.2476E+00  0.2998E+01
      1.239  0.2695E+00  0.3065E+01
      1.487  0.2599E+00  0.3130E+01
      1.735  0.3152E+00  0.3208E+01
      1.983  0.3203E+00  0.3287E+01
      2.231  0.3856E+00  0.3383E+01
      2.479  0.5244E+00  0.3513E+01
      2.727  0.5792E+00  0.3656E+01
      2.975  0.6229E+00  0.3811E+01
      3.223  0.6072E+00  0.3961E+01
      3.471  0.5436E+00  0.4096E+01
      3.719  0.5172E+00  0.4225E+01
      3.967  0.4622E+00  0.4339E+01
      4.215  0.4282E+00  0.4445E+01
      4.463  0.3273E+00  0.4526E+01
      4.711  0.2741E+00  0.4594E+01
      4.959  0.2553E+00  0.4658E+01
      5.207  0.1748E+00  0.4701E+01
      5.455  0.1342E+00  0.4734E+01
      5.703  0.1260E+00  0.4766E+01
      5.951  0.1499E+00  0.4803E+01
      6.199  0.1754E+00  0.4846E+01
      6.447  0.2199E+00  0.4901E+01
      6.695  0.2406E+00  0.4960E+01
      6.943  0.2702E+00  0.5027E+01
      7.191  0.2852E+00  0.5098E+01
      7.439  0.2659E+00  0.5164E+01
      7.687  0.2836E+00  0.5234E+01
      7.935  0.3728E+00  0.5327E+01
      8.183  0.4885E+00  0.5448E+01
      8.431  0.5313E+00  0.5580E+01
      8.679  0.4812E+00  0.5699E+01
      8.927  0.5052E+00  0.5824E+01
      9.175  0.4485E+00  0.5936E+01
      9.423  0.3965E+00  0.6034E+01
      9.671  0.3725E+00  0.6126E+01
      9.919  0.3536E+00  0.6214E+01
     10.167  0.1045E+00  0.6240E+01
     10.415  0.2984E-03  0.6240E+01
     10.663  0.5432E-10  0.6240E+01
     10.910  0.0000E+00  0.6240E+01
     11.158  0.0000E+00  0.6240E+01
     11.406  0.0000E+00  0.6240E+01
     11.654  0.0000E+00  0.6240E+01
     11.902  0.0000E+00  0.6240E+01
     12.150  0.0000E+00  0.6240E+01
     12.398  0.0000E+00  0.6240E+01
     12.646  0.0000E+00  0.6240E+01
     12.894  0.0000E+00  0.6240E+01
     13.142  0.0000E+00  0.6240E+01
     13.390  0.0000E+00  0.6240E+01
