       N       E                     dE             d eps       ncg     rms          rms(c)
DAV:   1     0.617550914473E+04    0.61755E+04   -0.22205E+05  8784   0.154E+03
DAV:   2     0.220170595674E+03   -0.59553E+04   -0.57422E+04  9072   0.553E+02
DAV:   3    -0.688851703442E+03   -0.90902E+03   -0.85467E+03 13344   0.191E+02
DAV:   4    -0.787926194092E+03   -0.99074E+02   -0.96348E+02 15456   0.705E+01
DAV:   5    -0.795304381043E+03   -0.73782E+01   -0.72554E+01 16848   0.172E+01    0.805E+01
RMM:   6    -0.978620784780E+03   -0.18332E+03   -0.32614E+03 11777   0.146E+02    0.127E+02
RMM:   7    -0.659299965645E+03    0.31932E+03   -0.30247E+02 12810   0.468E+01    0.562E+01
RMM:   8    -0.657381887555E+03    0.19181E+01   -0.76714E+01 13646   0.185E+01    0.416E+01
RMM:   9    -0.643850819315E+03    0.13531E+02   -0.21876E+01 13849   0.112E+01    0.321E+01
RMM:  10    -0.638920674083E+03    0.49301E+01   -0.71293E+00 13651   0.722E+00    0.163E+01
RMM:  11    -0.639946406947E+03   -0.10257E+01   -0.74389E+00 13772   0.569E+00    0.228E+01
RMM:  12    -0.638512976876E+03    0.14334E+01   -0.51193E+00 13179   0.542E+00    0.177E+01
RMM:  13    -0.637385165593E+03    0.11278E+01   -0.30501E+00 14024   0.353E+00    0.927E+00
RMM:  14    -0.637774888633E+03   -0.38972E+00   -0.19855E+00 13795   0.274E+00    0.147E+01
RMM:  15    -0.637294558675E+03    0.48033E+00   -0.14867E+00 13075   0.291E+00    0.994E+00
RMM:  16    -0.637160671318E+03    0.13389E+00   -0.90556E-01 13493   0.207E+00    0.666E+00
RMM:  17    -0.637075661445E+03    0.85010E-01   -0.41762E-01 13404   0.165E+00    0.698E+00
RMM:  18    -0.636888249488E+03    0.18741E+00   -0.22818E-01 13581   0.111E+00    0.287E+00
RMM:  19    -0.636923361015E+03   -0.35112E-01   -0.20618E-01 13669   0.837E-01    0.410E+00
RMM:  20    -0.636905559494E+03    0.17802E-01   -0.18000E-01 13648   0.860E-01    0.302E+00
RMM:  21    -0.636873995420E+03    0.31564E-01   -0.10425E-01 13703   0.604E-01    0.123E+00
RMM:  22    -0.636878824667E+03   -0.48292E-02   -0.61367E-02 14039   0.427E-01    0.134E+00
RMM:  23    -0.636869575538E+03    0.92491E-02   -0.31214E-02 13696   0.277E-01    0.770E-01
RMM:  24    -0.636866469729E+03    0.31058E-02   -0.21579E-02 13553   0.221E-01    0.240E-01
RMM:  25    -0.636867217540E+03   -0.74781E-03   -0.80379E-03 13336   0.142E-01    0.296E-01
RMM:  26    -0.636866868238E+03    0.34930E-03   -0.41628E-03 12442   0.832E-02    0.671E-02
RMM:  27    -0.636866907643E+03   -0.39404E-04   -0.20797E-03 12120   0.536E-02    0.337E-02
RMM:  28    -0.636866986725E+03   -0.79082E-04   -0.11285E-03 10792   0.376E-02    0.235E-02
RMM:  29    -0.636867024905E+03   -0.38180E-04   -0.57916E-04  9060   0.260E-02    0.926E-03
RMM:  30    -0.636867057495E+03   -0.32590E-04   -0.35470E-04  7702   0.180E-02    0.873E-03
RMM:  31    -0.636867075455E+03   -0.17960E-04   -0.19467E-04  6648   0.163E-02    0.599E-03
RMM:  32    -0.636867086016E+03   -0.10560E-04   -0.11634E-04  6201   0.129E-02    0.221E-03
RMM:  33    -0.636867092650E+03   -0.66343E-05   -0.70563E-05  6170   0.988E-03
   1 F= -.63686709E+03 E0= -.63676877E+03  d E =-.636867E+03
       N       E                     dE             d eps       ncg     rms          rms(c)
DAV:   1    -0.674032121118E+03   -0.37165E+02   -0.18956E+03 11952   0.187E+02    0.512E+01
RMM:   2    -0.755746494252E+03   -0.81714E+02   -0.68140E+02 10691   0.104E+02    0.819E+01
RMM:   3    -0.657546262531E+03    0.98200E+02   -0.72441E+01 12000   0.293E+01    0.507E+01
RMM:   4    -0.646689684559E+03    0.10857E+02   -0.25887E+01 12990   0.142E+01    0.224E+01
RMM:   5    -0.646327507509E+03    0.36218E+00   -0.15926E+01 11237   0.137E+01    0.325E+01
RMM:   6    -0.639501052280E+03    0.68265E+01   -0.64360E+00 11666   0.834E+00    0.138E+01
RMM:   7    -0.640350836691E+03   -0.84978E+00   -0.60793E+00 12700   0.607E+00    0.181E+01
RMM:   8    -0.639159315379E+03    0.11915E+01   -0.19639E+00 12009   0.474E+00    0.123E+01
RMM:   9    -0.638393526032E+03    0.76579E+00   -0.11039E+00 13594   0.264E+00    0.424E+00
RMM:  10    -0.638400447436E+03   -0.69214E-02   -0.40100E-01 14039   0.135E+00    0.462E+00
RMM:  11    -0.638319035060E+03    0.81412E-01   -0.16434E-01 13548   0.102E+00    0.211E+00
RMM:  12    -0.638334067321E+03   -0.15032E-01   -0.12526E-01 14281   0.716E-01    0.230E+00
RMM:  13    -0.638362961343E+03   -0.28894E-01   -0.96391E-02 13617   0.793E-01    0.278E+00
RMM:  14    -0.638332850599E+03    0.30111E-01   -0.67838E-02 13711   0.664E-01    0.996E-01
RMM:  15    -0.638349094623E+03   -0.16244E-01   -0.55951E-02 14302   0.478E-01    0.148E+00
RMM:  16    -0.638338072211E+03    0.11022E-01   -0.30749E-02 14238   0.364E-01    0.490E-01
RMM:  17    -0.638341029178E+03   -0.29570E-02   -0.17751E-02 13777   0.264E-01    0.729E-01
RMM:  18    -0.638341058871E+03   -0.29693E-04   -0.12884E-02 14132   0.219E-01    0.481E-01
RMM:  19    -0.638340377850E+03    0.68102E-03   -0.68463E-03 13537   0.137E-01    0.210E-01
RMM:  20    -0.638340418115E+03   -0.40266E-04   -0.39911E-03 12997   0.856E-02    0.114E-01
RMM:  21    -0.638340414896E+03    0.32191E-05   -0.21269E-03 12932   0.723E-02    0.505E-02
RMM:  22    -0.638340502274E+03   -0.87378E-04   -0.82474E-04 11893   0.528E-02    0.780E-02
RMM:  23    -0.638340469908E+03    0.32366E-04   -0.41183E-04 11383   0.308E-02    0.202E-02
RMM:  24    -0.638340472320E+03   -0.24120E-05   -0.22072E-04 10739   0.231E-02    0.853E-03
RMM:  25    -0.638340480394E+03   -0.80734E-05   -0.11606E-04  9570   0.208E-02    0.672E-03
RMM:  26    -0.638340484294E+03   -0.39005E-05   -0.51951E-05  7667   0.157E-02
   2 F= -.63834048E+03 E0= -.63825956E+03  d E =-.147339E+01
       N       E                     dE             d eps       ncg     rms          rms(c)
DAV:   1    -0.647014654164E+03   -0.86742E+01   -0.32025E+02 11976   0.738E+01    0.271E+01
RMM:   2    -0.690006884371E+03   -0.42992E+02   -0.10409E+02 13132   0.311E+01    0.555E+01
RMM:   3    -0.644249666960E+03    0.45757E+02   -0.29872E+01 11170   0.220E+01    0.228E+01
RMM:   4    -0.643466539483E+03    0.78313E+00   -0.93109E+00 12691   0.907E+00    0.231E+01
RMM:   5    -0.642153090197E+03    0.13134E+01   -0.31356E+00 12186   0.563E+00    0.176E+01
RMM:   6    -0.640249284045E+03    0.19038E+01   -0.16919E+00 11959   0.409E+00    0.811E+00
RMM:   7    -0.640683001489E+03   -0.43372E+00   -0.11399E+00 11895   0.314E+00    0.127E+01
RMM:   8    -0.640090603744E+03    0.59240E+00   -0.72907E-01 12482   0.252E+00    0.713E+00
RMM:   9    -0.639908272548E+03    0.18233E+00   -0.32318E-01 12809   0.160E+00    0.468E+00
RMM:  10    -0.639910245118E+03   -0.19726E-02   -0.21337E-01 13022   0.126E+00    0.435E+00
RMM:  11    -0.639843622286E+03    0.66623E-01   -0.12470E-01 13298   0.904E-01    0.239E+00
RMM:  12    -0.639817170208E+03    0.26452E-01   -0.62929E-02 14075   0.546E-01    0.114E+00
RMM:  13    -0.639821532299E+03   -0.43621E-02   -0.31958E-02 14069   0.368E-01    0.138E+00
RMM:  14    -0.639821045916E+03    0.48638E-03   -0.19463E-02 13567   0.325E-01    0.119E+00
RMM:  15    -0.639816084127E+03    0.49618E-02   -0.11952E-02 13767   0.240E-01    0.471E-01
RMM:  16    -0.639818961253E+03   -0.28771E-02   -0.88685E-03 13365   0.196E-01    0.749E-01
RMM:  17    -0.639818242646E+03    0.71861E-03   -0.69970E-03 13687   0.190E-01    0.322E-01
RMM:  18    -0.639819102584E+03   -0.85994E-03   -0.54189E-03 13584   0.133E-01    0.331E-01
RMM:  19    -0.639818761684E+03    0.34090E-03   -0.33796E-03 13221   0.992E-02    0.121E-01
RMM:  20    -0.639818730640E+03    0.31044E-04   -0.17105E-03 12766   0.726E-02    0.404E-02
RMM:  21    -0.639818807400E+03   -0.76760E-04   -0.90117E-04 11600   0.460E-02    0.339E-02
RMM:  22    -0.639818836374E+03   -0.28974E-04   -0.40241E-04 11363   0.322E-02    0.267E-02
RMM:  23    -0.639818846631E+03   -0.10257E-04   -0.22917E-04 10593   0.230E-02    0.126E-02
RMM:  24    -0.639818853967E+03   -0.73357E-05   -0.11332E-04 10098   0.189E-02    0.779E-03
RMM:  25    -0.639818856866E+03   -0.28992E-05   -0.48766E-05  8037   0.148E-02
   3 F= -.63981886E+03 E0= -.63973064E+03  d E =-.295176E+01
       N       E                     dE             d eps       ncg     rms          rms(c)
DAV:   1    -0.636752443917E+03    0.30664E+01   -0.62151E+02 11160   0.105E+02    0.171E+01
RMM:   2    -0.668685070164E+03   -0.31933E+02   -0.11287E+02 13689   0.323E+01    0.447E+01
RMM:   3    -0.643489837679E+03    0.25195E+02   -0.19696E+01 10883   0.177E+01    0.177E+01
RMM:   4    -0.642105880360E+03    0.13840E+01   -0.60129E+00 12622   0.623E+00    0.138E+01
RMM:   5    -0.641679313008E+03    0.42657E+00   -0.17173E+00 12183   0.384E+00    0.113E+01
RMM:   6    -0.641137678343E+03    0.54163E+00   -0.84250E-01 12450   0.234E+00    0.637E+00
RMM:   7    -0.640999492501E+03    0.13819E+00   -0.48809E-01 12283   0.172E+00    0.530E+00
RMM:   8    -0.641076469374E+03   -0.76977E-01   -0.38549E-01 12483   0.165E+00    0.669E+00
RMM:   9    -0.640948917590E+03    0.12755E+00   -0.28183E-01 12882   0.136E+00    0.475E+00
RMM:  10    -0.640856135159E+03    0.92782E-01   -0.13980E-01 12709   0.107E+00    0.250E+00
RMM:  11    -0.640871763600E+03   -0.15628E-01   -0.11432E-01 13273   0.812E-01    0.272E+00
RMM:  12    -0.640847663760E+03    0.24100E-01   -0.57228E-02 13530   0.591E-01    0.179E+00
RMM:  13    -0.640836083555E+03    0.11580E-01   -0.29639E-02 13026   0.383E-01    0.829E-01
RMM:  14    -0.640838307404E+03   -0.22238E-02   -0.20088E-02 13872   0.250E-01    0.751E-01
RMM:  15    -0.640835849600E+03    0.24578E-02   -0.11122E-02 14068   0.160E-01    0.235E-01
RMM:  16    -0.640837063184E+03   -0.12136E-02   -0.56666E-03 13782   0.124E-01    0.381E-01
RMM:  17    -0.640837037095E+03    0.26089E-04   -0.34799E-03 12848   0.116E-01    0.283E-01
RMM:  18    -0.640837373001E+03   -0.33591E-03   -0.24469E-03 12892   0.104E-01    0.266E-01
RMM:  19    -0.640837110403E+03    0.26260E-03   -0.17802E-03 13263   0.788E-02    0.519E-02
RMM:  20    -0.640837152246E+03   -0.41843E-04   -0.10008E-03 11928   0.476E-02    0.312E-02
RMM:  21    -0.640837191297E+03   -0.39051E-04   -0.43145E-04 11217   0.299E-02    0.419E-02
RMM:  22    -0.640837199362E+03   -0.80645E-05   -0.23780E-04 10531   0.232E-02    0.195E-02
RMM:  23    -0.640837204811E+03   -0.54492E-05   -0.11122E-04  8891   0.179E-02    0.843E-03
RMM:  24    -0.640837208647E+03   -0.38356E-05   -0.63234E-05  7654   0.157E-02
   4 F= -.64083721E+03 E0= -.64075015E+03  d E =-.101835E+01
       N       E                     dE             d eps       ncg     rms          rms(c)
DAV:   1    -0.640689851830E+03    0.14735E+00   -0.26562E+01 10776   0.221E+01    0.325E+00
RMM:   2    -0.642152864617E+03   -0.14630E+01   -0.55168E+00 12553   0.768E+00    0.132E+01
RMM:   3    -0.641302485858E+03    0.85038E+00   -0.86555E-01 11418   0.326E+00    0.887E+00
RMM:   4    -0.640976531473E+03    0.32595E+00   -0.30198E-01 11759   0.173E+00    0.334E+00
RMM:   5    -0.640930731566E+03    0.45800E-01   -0.10610E-01 12186   0.892E-01    0.169E+00
RMM:   6    -0.640927591015E+03    0.31406E-02   -0.46996E-02 12332   0.533E-01    0.185E+00
RMM:   7    -0.640910411759E+03    0.17179E-01   -0.20828E-02 11982   0.387E-01    0.923E-01
RMM:   8    -0.640915472447E+03   -0.50607E-02   -0.18120E-02 12572   0.348E-01    0.141E+00
RMM:   9    -0.640911057986E+03    0.44145E-02   -0.15210E-02 12573   0.341E-01    0.109E+00
RMM:  10    -0.640906050821E+03    0.50072E-02   -0.71040E-03 11993   0.263E-01    0.577E-01
RMM:  11    -0.640905888622E+03    0.16220E-03   -0.48646E-03 12922   0.167E-01    0.482E-01
RMM:  12    -0.640905888998E+03   -0.37629E-06   -0.26910E-03 12263   0.118E-01    0.450E-01
RMM:  13    -0.640905029773E+03    0.85922E-03   -0.14009E-03 11539   0.894E-02    0.151E-01
RMM:  14    -0.640905058982E+03   -0.29209E-04   -0.93659E-04 12040   0.505E-02    0.109E-01
RMM:  15    -0.640905071217E+03   -0.12235E-04   -0.52669E-04 11476   0.337E-02    0.499E-02
RMM:  16    -0.640905180140E+03   -0.10892E-03   -0.22158E-04 10931   0.360E-02    0.129E-01
RMM:  17    -0.640905125834E+03    0.54306E-04   -0.15508E-04 10199   0.311E-02    0.346E-02
RMM:  18    -0.640905153825E+03   -0.27991E-04   -0.13207E-04 10459   0.220E-02    0.442E-02
RMM:  19    -0.640905143111E+03    0.10714E-04   -0.69408E-05  8304   0.179E-02    0.842E-03
RMM:  20    -0.640905142831E+03    0.27964E-06   -0.26873E-05  6346   0.159E-02
   5 F= -.64090514E+03 E0= -.64081808E+03  d E =-.108629E+01
       N       E                     dE             d eps       ncg     rms          rms(c)
DAV:   1    -0.639066655853E+03    0.18385E+01   -0.11427E+02  9264   0.601E+01    0.251E+00
RMM:   2    -0.641753159784E+03   -0.26865E+01   -0.22790E+01 13784   0.135E+01    0.107E+01
RMM:   3    -0.641374571902E+03    0.37859E+00   -0.15684E+00 12792   0.351E+00    0.448E+00
RMM:   4    -0.641383744133E+03   -0.91722E-02   -0.37619E-01 13183   0.155E+00    0.424E+00
RMM:   5    -0.641293356393E+03    0.90388E-01   -0.96086E-02 12313   0.872E-01    0.200E+00
RMM:   6    -0.641279070083E+03    0.14286E-01   -0.53271E-02 12938   0.513E-01    0.137E+00
RMM:   7    -0.641285477374E+03   -0.64073E-02   -0.37430E-02 12886   0.411E-01    0.193E+00
RMM:   8    -0.641272438923E+03    0.13038E-01   -0.36909E-02 12353   0.492E-01    0.118E+00
RMM:   9    -0.641265219731E+03    0.72192E-02   -0.26427E-02 12751   0.330E-01    0.684E-01
RMM:  10    -0.641265892298E+03   -0.67257E-03   -0.10081E-02 12199   0.228E-01    0.786E-01
RMM:  11    -0.641264640702E+03    0.12516E-02   -0.57619E-03 11585   0.206E-01    0.531E-01
RMM:  12    -0.641263313165E+03    0.13275E-02   -0.34578E-03 12002   0.127E-01    0.269E-01
RMM:  13    -0.641263364664E+03   -0.51499E-04   -0.18986E-03 10987   0.107E-01    0.266E-01
RMM:  14    -0.641263372158E+03   -0.74936E-05   -0.12227E-03 10623   0.848E-02    0.234E-01
RMM:  15    -0.641263109186E+03    0.26297E-03   -0.62718E-04 10221   0.580E-02    0.926E-02
RMM:  16    -0.641263145025E+03   -0.35839E-04   -0.43581E-04  9113   0.401E-02    0.947E-02
RMM:  17    -0.641263114887E+03    0.30139E-04   -0.23070E-04  9110   0.258E-02    0.231E-02
RMM:  18    -0.641263132778E+03   -0.17892E-04   -0.13000E-04  7993   0.212E-02    0.351E-02
RMM:  19    -0.641263126884E+03    0.58941E-05   -0.62900E-05  6657   0.167E-02
   6 F= -.64126313E+03 E0= -.64117905E+03  d E =-.357984E+00
       N       E                     dE             d eps       ncg     rms          rms(c)
DAV:   1    -0.640472031241E+03    0.79110E+00   -0.45200E+01  9336   0.379E+01    0.157E+00
RMM:   2    -0.641529185172E+03   -0.10572E+01   -0.88564E+00 13733   0.841E+00    0.708E+00
RMM:   3    -0.641373087329E+03    0.15610E+00   -0.64697E-01 12762   0.233E+00    0.278E+00
RMM:   4    -0.641380756316E+03   -0.76690E-02   -0.14651E-01 13102   0.101E+00    0.276E+00
RMM:   5    -0.641344775899E+03    0.35980E-01   -0.40541E-02 12158   0.571E-01    0.141E+00
RMM:   6    -0.641337861620E+03    0.69143E-02   -0.21166E-02 12657   0.329E-01    0.870E-01
RMM:   7    -0.641339509427E+03   -0.16478E-02   -0.14976E-02 12760   0.269E-01    0.107E+00
RMM:   8    -0.641334153946E+03    0.53555E-02   -0.17119E-02 12473   0.314E-01    0.638E-01
RMM:   9    -0.641332177489E+03    0.19765E-02   -0.84289E-03 12455   0.184E-01    0.400E-01
RMM:  10    -0.641332661120E+03   -0.48363E-03   -0.38260E-03 11614   0.149E-01    0.489E-01
RMM:  11    -0.641331992932E+03    0.66819E-03   -0.17845E-03 10599   0.127E-01    0.322E-01
RMM:  12    -0.641331572932E+03    0.42000E-03   -0.13371E-03 10960   0.818E-02    0.171E-01
RMM:  13    -0.641331555074E+03    0.17858E-04   -0.69577E-04  9717   0.706E-02    0.131E-01
RMM:  14    -0.641331529118E+03    0.25955E-04   -0.42680E-04 10042   0.475E-02    0.898E-02
RMM:  15    -0.641331486925E+03    0.42194E-04   -0.23919E-04  8624   0.300E-02    0.258E-02
RMM:  16    -0.641331498147E+03   -0.11223E-04   -0.14118E-04  7261   0.211E-02    0.278E-02
RMM:  17    -0.641331504765E+03   -0.66173E-05   -0.46175E-05  6105   0.186E-02
   7 F= -.64133150E+03 E0= -.64124920E+03  d E =-.426362E+00
       N       E                     dE             d eps       ncg     rms          rms(c)
DAV:   1    -0.639486381633E+03    0.18451E+01   -0.10744E+02  9384   0.583E+01    0.401E+00
RMM:   2    -0.642816745903E+03   -0.33304E+01   -0.24390E+01 13997   0.131E+01    0.145E+01
RMM:   3    -0.641875061963E+03    0.94168E+00   -0.17026E+00 11483   0.452E+00    0.795E+00
RMM:   4    -0.641651169589E+03    0.22389E+00   -0.63647E-01 12492   0.214E+00    0.431E+00
RMM:   5    -0.641617601746E+03    0.33568E-01   -0.21620E-01 12013   0.133E+00    0.364E+00
RMM:   6    -0.641546536770E+03    0.71065E-01   -0.10437E-01 12523   0.804E-01    0.175E+00
RMM:   7    -0.641541924918E+03    0.46119E-02   -0.66729E-02 12724   0.579E-01    0.166E+00
RMM:   8    -0.641560015776E+03   -0.18091E-01   -0.54414E-02 12228   0.613E-01    0.269E+00
RMM:   9    -0.641531211901E+03    0.28804E-01   -0.33968E-02 12075   0.538E-01    0.141E+00
RMM:  10    -0.641525067979E+03    0.61439E-02   -0.20929E-02 12628   0.355E-01    0.765E-01
RMM:  11    -0.641525608542E+03   -0.54056E-03   -0.12709E-02 12989   0.265E-01    0.693E-01
RMM:  12    -0.641522781343E+03    0.28272E-02   -0.55519E-03 12770   0.164E-01    0.213E-01
RMM:  13    -0.641523114283E+03   -0.33294E-03   -0.36073E-03 12803   0.942E-02    0.244E-01
RMM:  14    -0.641523054095E+03    0.60187E-04   -0.16814E-03 12752   0.693E-02    0.170E-01
RMM:  15    -0.641522984406E+03    0.69690E-04   -0.95267E-04 12072   0.513E-02    0.883E-02
RMM:  16    -0.641523135566E+03   -0.15116E-03   -0.46520E-04 11461   0.471E-02    0.168E-01
RMM:  17    -0.641523012192E+03    0.12337E-03   -0.27307E-04 10635   0.381E-02    0.363E-02
RMM:  18    -0.641523048707E+03   -0.36514E-04   -0.21163E-04 10833   0.245E-02    0.554E-02
RMM:  19    -0.641523031901E+03    0.16806E-04   -0.11816E-04  8826   0.201E-02    0.120E-02
RMM:  20    -0.641523034758E+03   -0.28568E-05   -0.46941E-05  6471   0.152E-02
   8 F= -.64152303E+03 E0= -.64144233E+03  d E =-.191530E+00
       N       E                     dE             d eps       ncg     rms          rms(c)
DAV:   1    -0.641391734021E+03    0.13130E+00   -0.72655E+00  9744   0.153E+01    0.102E+00
RMM:   2    -0.641615973275E+03   -0.22424E+00   -0.16541E+00 13930   0.342E+00    0.412E+00
RMM:   3    -0.641562382365E+03    0.53591E-01   -0.11905E-01 11681   0.120E+00    0.244E+00
RMM:   4    -0.641540529147E+03    0.21853E-01   -0.43615E-02 12076   0.593E-01    0.102E+00
RMM:   5    -0.641538469320E+03    0.20598E-02   -0.16583E-02 11788   0.340E-01    0.956E-01
RMM:   6    -0.641534522877E+03    0.39464E-02   -0.68971E-03 11650   0.232E-01    0.616E-01
RMM:   7    -0.641533418363E+03    0.11045E-02   -0.43993E-03 11852   0.154E-01    0.451E-01
RMM:   8    -0.641534630728E+03   -0.12124E-02   -0.38601E-03 11913   0.161E-01    0.652E-01
RMM:   9    -0.641532571229E+03    0.20595E-02   -0.28774E-03 12066   0.156E-01    0.280E-01
RMM:  10    -0.641532299279E+03    0.27195E-03   -0.14930E-03 11807   0.915E-02    0.175E-01
RMM:  11    -0.641532313614E+03   -0.14334E-04   -0.76845E-04 11491   0.623E-02    0.161E-01
RMM:  12    -0.641532173035E+03    0.14058E-03   -0.35331E-04 10978   0.402E-02    0.591E-02
RMM:  13    -0.641532194365E+03   -0.21330E-04   -0.22308E-04  8759   0.283E-02    0.717E-02
RMM:  14    -0.641532187020E+03    0.73453E-05   -0.10343E-04  7928   0.237E-02    0.481E-02
RMM:  15    -0.641532177864E+03    0.91560E-05   -0.63209E-05  6941   0.181E-02
   9 F= -.64153218E+03 E0= -.64145195E+03  d E =-.200673E+00
       N       E                     dE             d eps       ncg     rms          rms(c)
DAV:   1    -0.640194789305E+03    0.13374E+01   -0.71663E+01 10200   0.521E+01    0.347E+00
RMM:   2    -0.642405363245E+03   -0.22106E+01   -0.17873E+01 13881   0.117E+01    0.903E+00
RMM:   3    -0.641828486683E+03    0.57688E+00   -0.14703E+00 11536   0.425E+00    0.574E+00
RMM:   4    -0.641720937836E+03    0.10755E+00   -0.46314E-01 13284   0.167E+00    0.356E+00
RMM:   5    -0.641703172167E+03    0.17766E-01   -0.13490E-01 12144   0.977E-01    0.304E+00
RMM:   6    -0.641667785176E+03    0.35387E-01   -0.65798E-02 12490   0.673E-01    0.204E+00
RMM:   7    -0.641652004893E+03    0.15780E-01   -0.28765E-02 11987   0.459E-01    0.123E+00
RMM:   8    -0.641673039444E+03   -0.21035E-01   -0.32660E-02 11791   0.522E-01    0.256E+00
RMM:   9    -0.641644102609E+03    0.28937E-01   -0.26797E-02 12159   0.515E-01    0.807E-01
RMM:  10    -0.641643340103E+03    0.76251E-03   -0.14828E-02 13282   0.278E-01    0.752E-01
RMM:  11    -0.641641907569E+03    0.14325E-02   -0.71539E-03 13169   0.203E-01    0.437E-01
RMM:  12    -0.641640676440E+03    0.12311E-02   -0.33108E-03 12951   0.118E-01    0.142E-01
RMM:  13    -0.641640914882E+03   -0.23844E-03   -0.17139E-03 12403   0.768E-02    0.203E-01
RMM:  14    -0.641640839763E+03    0.75119E-04   -0.97779E-04 12407   0.603E-02    0.104E-01
RMM:  15    -0.641640889398E+03   -0.49635E-04   -0.53579E-04 11897   0.442E-02    0.989E-02
RMM:  16    -0.641640967244E+03   -0.77846E-04   -0.32574E-04 11250   0.420E-02    0.121E-01
RMM:  17    -0.641640909386E+03    0.57859E-04   -0.18738E-04 10812   0.346E-02    0.396E-02
RMM:  18    -0.641640936514E+03   -0.27129E-04   -0.16379E-04 10830   0.219E-02    0.429E-02
RMM:  19    -0.641640928958E+03    0.75560E-05   -0.84601E-05  8381   0.179E-02
  10 F= -.64164093E+03 E0= -.64156470E+03  d E =-.108751E+00
       N       E                     dE             d eps       ncg     rms          rms(c)
DAV:   1    -0.641585105673E+03    0.55831E-01   -0.26058E+00  9912   0.101E+01    0.674E-01
RMM:   2    -0.641668468051E+03   -0.83362E-01   -0.69801E-01 13960   0.228E+00    0.167E+00
RMM:   3    -0.641652867532E+03    0.15601E-01   -0.56351E-02 11451   0.797E-01    0.131E+00
RMM:   4    -0.641647943252E+03    0.49243E-02   -0.17197E-02 12393   0.334E-01    0.822E-01
RMM:   5    -0.641646245552E+03    0.16977E-02   -0.55517E-03 11529   0.203E-01    0.518E-01
RMM:   6    -0.641645329391E+03    0.91616E-03   -0.27913E-03 11973   0.130E-01    0.446E-01
RMM:   7    -0.641644549184E+03    0.78021E-03   -0.10689E-03 10302   0.967E-02    0.228E-01
RMM:   8    -0.641645116136E+03   -0.56695E-03   -0.13110E-03 11133   0.105E-01    0.409E-01
RMM:   9    -0.641644235499E+03    0.88064E-03   -0.10462E-03 12105   0.988E-02    0.128E-01
RMM:  10    -0.641644265700E+03   -0.30202E-04   -0.58021E-04 11634   0.572E-02    0.151E-01
RMM:  11    -0.641644209242E+03    0.56458E-04   -0.27359E-04 10522   0.448E-02    0.919E-02
RMM:  12    -0.641644159760E+03    0.49482E-04   -0.13950E-04  9610   0.256E-02    0.278E-02
RMM:  13    -0.641644170543E+03   -0.10783E-04   -0.69428E-05  6750   0.191E-02    0.404E-02
RMM:  14    -0.641644168368E+03    0.21745E-05   -0.37388E-05  6022   0.192E-02
  11 F= -.64164417E+03 E0= -.64156878E+03  d E =-.111991E+00
       N       E                     dE             d eps       ncg     rms          rms(c)
DAV:   1    -0.640898920734E+03    0.74525E+00   -0.46678E+01 10512   0.417E+01    0.346E+00
RMM:   2    -0.642508453692E+03   -0.16095E+01   -0.11389E+01 13772   0.912E+00    0.100E+01
RMM:   3    -0.642066556312E+03    0.44190E+00   -0.10135E+00 11596   0.352E+00    0.767E+00
RMM:   4    -0.641812243829E+03    0.25431E+00   -0.32858E-01 12348   0.168E+00    0.361E+00
RMM:   5    -0.641774932134E+03    0.37312E-01   -0.13856E-01 12389   0.996E-01    0.248E+00
RMM:   6    -0.641751803141E+03    0.23129E-01   -0.59879E-02 12418   0.632E-01    0.197E+00
RMM:   7    -0.641735551174E+03    0.16252E-01   -0.27328E-02 11857   0.479E-01    0.114E+00
RMM:   8    -0.641749538087E+03   -0.13987E-01   -0.29732E-02 12041   0.481E-01    0.207E+00
RMM:   9    -0.641728793366E+03    0.20745E-01   -0.19482E-02 12030   0.438E-01    0.618E-01
RMM:  10    -0.641728962018E+03   -0.16865E-03   -0.11691E-02 13357   0.253E-01    0.592E-01
RMM:  11    -0.641728285666E+03    0.67635E-03   -0.55708E-03 13434   0.172E-01    0.433E-01
RMM:  12    -0.641727167562E+03    0.11181E-02   -0.25680E-03 12704   0.109E-01    0.136E-01
RMM:  13    -0.641727363311E+03   -0.19575E-03   -0.17191E-03 12253   0.683E-02    0.174E-01
RMM:  14    -0.641727297104E+03    0.66207E-04   -0.75522E-04 12123   0.517E-02    0.872E-02
RMM:  15    -0.641727334296E+03   -0.37192E-04   -0.39568E-04 11750   0.389E-02    0.887E-02
RMM:  16    -0.641727378599E+03   -0.44303E-04   -0.26667E-04 11260   0.384E-02    0.101E-01
RMM:  17    -0.641727336444E+03    0.42155E-04   -0.15083E-04 11109   0.299E-02    0.318E-02
RMM:  18    -0.641727352203E+03   -0.15759E-04   -0.14098E-04 10453   0.199E-02    0.305E-02
RMM:  19    -0.641727349370E+03    0.28327E-05   -0.62521E-05  7956   0.170E-02
  12 F= -.64172735E+03 E0= -.64165442E+03  d E =-.831810E-01
       N       E                     dE             d eps       ncg     rms          rms(c)
DAV:   1    -0.641493284750E+03    0.23407E+00   -0.12884E+01 10608   0.222E+01    0.186E+00
RMM:   2    -0.641984791215E+03   -0.49151E+00   -0.34197E+00 13608   0.504E+00    0.578E+00
RMM:   3    -0.641847708534E+03    0.13708E+00   -0.32169E-01 11562   0.192E+00    0.449E+00
RMM:   4    -0.641766009974E+03    0.81699E-01   -0.99467E-02 12104   0.943E-01    0.195E+00
RMM:   5    -0.641753025258E+03    0.12985E-01   -0.40121E-02 12282   0.528E-01    0.122E+00
RMM:   6    -0.641748044945E+03    0.49803E-02   -0.17843E-02 12289   0.334E-01    0.110E+00
RMM:   7    -0.641742743175E+03    0.53018E-02   -0.69610E-03 11359   0.255E-01    0.585E-01
RMM:   8    -0.641746475416E+03   -0.37322E-02   -0.83183E-03 12049   0.252E-01    0.105E+00
RMM:   9    -0.641740891204E+03    0.55842E-02   -0.55937E-03 12031   0.237E-01    0.310E-01
RMM:  10    -0.641741013932E+03   -0.12273E-03   -0.32016E-03 12809   0.135E-01    0.317E-01
RMM:  11    -0.641740749360E+03    0.26457E-03   -0.14503E-03 12411   0.919E-02    0.212E-01
RMM:  12    -0.641740486765E+03    0.26259E-03   -0.67396E-04 11897   0.575E-02    0.727E-02
RMM:  13    -0.641740535107E+03   -0.48342E-04   -0.44853E-04 11278   0.372E-02    0.890E-02
RMM:  14    -0.641740516182E+03    0.18925E-04   -0.20291E-04 11002   0.270E-02    0.453E-02
RMM:  15    -0.641740528423E+03   -0.12241E-04   -0.11383E-04 10494   0.224E-02    0.491E-02
RMM:  16    -0.641740538264E+03   -0.98410E-05   -0.65674E-05  7653   0.210E-02
  13 F= -.64174054E+03 E0= -.64166911E+03  d E =-.963699E-01
       N       E                     dE             d eps       ncg     rms          rms(c)
DAV:   1    -0.640719177893E+03    0.10214E+01   -0.46660E+01  9672   0.443E+01    0.197E+00
RMM:   2    -0.642167907773E+03   -0.14487E+01   -0.12064E+01 13631   0.907E+00    0.808E+00
RMM:   3    -0.641866907900E+03    0.30100E+00   -0.70889E-01 11990   0.253E+00    0.276E+00
RMM:   4    -0.641870274273E+03   -0.33664E-02   -0.19600E-01 12457   0.111E+00    0.258E+00
RMM:   5    -0.641837871008E+03    0.32403E-01   -0.50290E-02 11767   0.637E-01    0.130E+00
RMM:   6    -0.641829790677E+03    0.80803E-02   -0.24367E-02 11543   0.418E-01    0.878E-01
RMM:   7    -0.641828812743E+03    0.97793E-03   -0.14739E-02 12402   0.250E-01    0.878E-01
RMM:   8    -0.641833484543E+03   -0.46718E-02   -0.11855E-02 11699   0.312E-01    0.136E+00
RMM:   9    -0.641824228848E+03    0.92557E-02   -0.12358E-02 11952   0.297E-01    0.381E-01
RMM:  10    -0.641824021622E+03    0.20723E-03   -0.48721E-03 12524   0.151E-01    0.320E-01
RMM:  11    -0.641823994254E+03    0.27368E-04   -0.24735E-03 11982   0.108E-01    0.266E-01
RMM:  12    -0.641823565917E+03    0.42834E-03   -0.10799E-03 11597   0.727E-02    0.955E-02
RMM:  13    -0.641823670746E+03   -0.10483E-03   -0.71693E-04 10546   0.507E-02    0.137E-01
RMM:  14    -0.641823600197E+03    0.70549E-04   -0.34436E-04 10141   0.371E-02    0.493E-02
RMM:  15    -0.641823624903E+03   -0.24706E-04   -0.17936E-04  8146   0.283E-02    0.653E-02
RMM:  16    -0.641823616978E+03    0.79251E-05   -0.88002E-05  6719   0.236E-02
  14 F= -.64182362E+03 E0= -.64175514E+03  d E =-.830787E-01
       N       E                     dE             d eps       ncg     rms          rms(c)
DAV:   1    -0.640911946828E+03    0.91168E+00   -0.39297E+01  9624   0.408E+01    0.180E+00
RMM:   2    -0.642121600984E+03   -0.12097E+01   -0.10216E+01 13619   0.831E+00    0.709E+00
RMM:   3    -0.641888823924E+03    0.23278E+00   -0.61320E-01 11971   0.234E+00    0.245E+00
RMM:   4    -0.641893070942E+03   -0.42470E-02   -0.16392E-01 12457   0.101E+00    0.232E+00
RMM:   5    -0.641866856901E+03    0.26214E-01   -0.41526E-02 11717   0.575E-01    0.123E+00
RMM:   6    -0.641860901768E+03    0.59551E-02   -0.20694E-02 11578   0.377E-01    0.909E-01
RMM:   7    -0.641859305777E+03    0.15960E-02   -0.12348E-02 12203   0.230E-01    0.777E-01
RMM:   8    -0.641861761120E+03   -0.24553E-02   -0.10856E-02 12001   0.282E-01    0.104E+00
RMM:   9    -0.641855600708E+03    0.61604E-02   -0.10004E-02 11902   0.271E-01    0.361E-01
RMM:  10    -0.641855295034E+03    0.30567E-03   -0.40650E-03 12346   0.139E-01    0.273E-01
RMM:  11    -0.641855350679E+03   -0.55646E-04   -0.20886E-03 11962   0.997E-02    0.246E-01
RMM:  12    -0.641855005606E+03    0.34507E-03   -0.89182E-04 11171   0.697E-02    0.105E-01
RMM:  13    -0.641855041357E+03   -0.35750E-04   -0.57955E-04 10524   0.466E-02    0.100E-01
RMM:  14    -0.641855017571E+03    0.23786E-04   -0.30543E-04 10090   0.316E-02    0.450E-02
RMM:  15    -0.641855035304E+03   -0.17733E-04   -0.13464E-04  7588   0.267E-02    0.575E-02
RMM:  16    -0.641855030072E+03    0.52321E-05   -0.70088E-05  6397   0.229E-02
  15 F= -.64185503E+03 E0= -.64178918E+03  d E =-.114492E+00
       N       E                     dE             d eps       ncg     rms          rms(c)
DAV:   1    -0.641116437897E+03    0.73860E+00   -0.28386E+01  9048   0.350E+01    0.183E+00
RMM:   2    -0.642115724339E+03   -0.99929E+00   -0.86094E+00 13875   0.742E+00    0.642E+00
RMM:   3    -0.641950547600E+03    0.16518E+00   -0.58568E-01 11715   0.222E+00    0.261E+00
RMM:   4    -0.641937708604E+03    0.12839E-01   -0.13793E-01 12146   0.102E+00    0.191E+00
RMM:   5    -0.641929732266E+03    0.79763E-02   -0.39259E-02 11467   0.561E-01    0.175E+00
RMM:   6    -0.641916922833E+03    0.12809E-01   -0.21124E-02 11850   0.360E-01    0.869E-01
RMM:   7    -0.641915622854E+03    0.13000E-02   -0.12549E-02 12121   0.232E-01    0.681E-01
RMM:   8    -0.641916631195E+03   -0.10083E-02   -0.10406E-02 12363   0.266E-01    0.827E-01
RMM:   9    -0.641912491079E+03    0.41401E-02   -0.44246E-03 11453   0.204E-01    0.213E-01
RMM:  10    -0.641913090963E+03   -0.59988E-03   -0.38949E-03 13422   0.119E-01    0.310E-01
RMM:  11    -0.641912585069E+03    0.50589E-03   -0.15015E-03 12016   0.895E-02    0.150E-01
RMM:  12    -0.641912548419E+03    0.36650E-04   -0.75378E-04 11405   0.565E-02    0.865E-02
RMM:  13    -0.641912562766E+03   -0.14347E-04   -0.43325E-04 11334   0.327E-02    0.688E-02
RMM:  14    -0.641912548300E+03    0.14466E-04   -0.19492E-04 10199   0.248E-02    0.356E-02
RMM:  15    -0.641912557051E+03   -0.87520E-05   -0.10492E-04  8664   0.190E-02    0.320E-02
RMM:  16    -0.641912554628E+03    0.24232E-05   -0.47498E-05  6462   0.179E-02
  16 F= -.64191255E+03 E0= -.64184855E+03  d E =-.575246E-01
       N       E                     dE             d eps       ncg     rms          rms(c)
DAV:   1    -0.641533913007E+03    0.37864E+00   -0.13914E+01  8880   0.243E+01    0.126E+00
RMM:   2    -0.641998486570E+03   -0.46457E+00   -0.41979E+00 13836   0.522E+00    0.382E+00
RMM:   3    -0.641949236243E+03    0.49250E-01   -0.28419E-01 11639   0.153E+00    0.201E+00
RMM:   4    -0.641938599172E+03    0.10637E-01   -0.65330E-02 11891   0.730E-01    0.125E+00
RMM:   5    -0.641935602834E+03    0.29963E-02   -0.18543E-02 11284   0.394E-01    0.122E+00
RMM:   6    -0.641929405964E+03    0.61969E-02   -0.10162E-02 11722   0.246E-01    0.573E-01
RMM:   7    -0.641929032499E+03    0.37346E-03   -0.60661E-03 11750   0.164E-01    0.493E-01
RMM:   8    -0.641929652427E+03   -0.61993E-03   -0.51800E-03 12267   0.191E-01    0.606E-01
RMM:   9    -0.641927401672E+03    0.22508E-02   -0.22820E-03 11266   0.148E-01    0.150E-01
RMM:  10    -0.641927753840E+03   -0.35217E-03   -0.19511E-03 12690   0.918E-02    0.240E-01
RMM:  11    -0.641927452326E+03    0.30151E-03   -0.80612E-04 11575   0.651E-02    0.103E-01
RMM:  12    -0.641927433138E+03    0.19188E-04   -0.40063E-04 10749   0.412E-02    0.611E-02
RMM:  13    -0.641927450758E+03   -0.17620E-04   -0.23761E-04 10195   0.255E-02    0.591E-02
RMM:  14    -0.641927434128E+03    0.16630E-04   -0.10887E-04  8021   0.208E-02    0.238E-02
RMM:  15    -0.641927449003E+03   -0.14875E-04   -0.50941E-05  6357   0.200E-02    0.505E-02
RMM:  16    -0.641927436266E+03    0.12737E-04   -0.28713E-05  5805   0.209E-02    0.114E-02
RMM:  17    -0.641927440203E+03   -0.39374E-05   -0.27287E-05  5833   0.127E-02
  17 F= -.64192744E+03 E0= -.64186474E+03  d E =-.724101E-01
       N       E                     dE             d eps       ncg     rms          rms(c)
DAV:   1    -0.641627587347E+03    0.29985E+00   -0.14359E+01  9072   0.228E+01    0.162E+00
RMM:   2    -0.642162903334E+03   -0.53532E+00   -0.39633E+00 13702   0.561E+00    0.546E+00
RMM:   3    -0.642010587650E+03    0.15232E+00   -0.35503E-01 11619   0.190E+00    0.309E+00
RMM:   4    -0.641969511579E+03    0.41076E-01   -0.94473E-02 12311   0.865E-01    0.139E+00
RMM:   5    -0.641967124984E+03    0.23866E-02   -0.32368E-02 12478   0.438E-01    0.132E+00
RMM:   6    -0.641960995655E+03    0.61293E-02   -0.12174E-02 11973   0.315E-01    0.940E-01
RMM:   7    -0.641957179873E+03    0.38158E-02   -0.76085E-03 12257   0.208E-01    0.451E-01
RMM:   8    -0.641958650661E+03   -0.14708E-02   -0.78432E-03 12573   0.230E-01    0.642E-01
RMM:   9    -0.641956120346E+03    0.25303E-02   -0.47660E-03 12440   0.200E-01    0.360E-01
RMM:  10    -0.641955618580E+03    0.50177E-03   -0.21285E-03 12146   0.120E-01    0.195E-01
RMM:  11    -0.641955603943E+03    0.14636E-04   -0.11482E-03 12458   0.698E-02    0.152E-01
RMM:  12    -0.641955480951E+03    0.12299E-03   -0.50431E-04 11778   0.442E-02    0.635E-02
RMM:  13    -0.641955531278E+03   -0.50327E-04   -0.28447E-04 10668   0.357E-02    0.919E-02
RMM:  14    -0.641955508949E+03    0.22329E-04   -0.16008E-04 10359   0.257E-02    0.346E-02
RMM:  15    -0.641955525277E+03   -0.16328E-04   -0.10575E-04  9741   0.193E-02    0.374E-02
RMM:  16    -0.641955529515E+03   -0.42376E-05   -0.49267E-05  6964   0.170E-02
  18 F= -.64195553E+03 E0= -.64189435E+03  d E =-.280893E-01
       N       E                     dE             d eps       ncg     rms          rms(c)
DAV:   1    -0.641933478109E+03    0.22047E-01   -0.10417E+00  9816   0.614E+00    0.432E-01
RMM:   2    -0.641971020626E+03   -0.37543E-01   -0.28178E-01 13653   0.150E+00    0.143E+00
RMM:   3    -0.641961085216E+03    0.99354E-02   -0.25179E-02 11356   0.505E-01    0.842E-01
RMM:   4    -0.641958068970E+03    0.30162E-02   -0.67562E-03 11505   0.238E-01    0.394E-01
RMM:   5    -0.641957854860E+03    0.21411E-03   -0.23705E-03 11300   0.125E-01    0.361E-01
RMM:   6    -0.641957403397E+03    0.45146E-03   -0.91714E-04 10550   0.925E-02    0.251E-01
RMM:   7    -0.641957128189E+03    0.27521E-03   -0.57201E-04 10228   0.659E-02    0.121E-01
RMM:   8    -0.641957246103E+03   -0.11791E-03   -0.57588E-04 11402   0.621E-02    0.177E-01
RMM:   9    -0.641957072100E+03    0.17400E-03   -0.33699E-04 10672   0.627E-02    0.100E-01
RMM:  10    -0.641957030822E+03    0.41278E-04   -0.18389E-04 10416   0.380E-02    0.473E-02
RMM:  11    -0.641957033768E+03   -0.29462E-05   -0.92029E-05  8358   0.238E-02
  19 F= -.64195703E+03 E0= -.64189627E+03  d E =-.295936E-01
       N       E                     dE             d eps       ncg     rms          rms(c)
DAV:   1    -0.641801586184E+03    0.15544E+00   -0.15215E+01 11136   0.222E+01    0.257E+00
RMM:   2    -0.642406388931E+03   -0.60480E+00   -0.36900E+00 12578   0.574E+00    0.650E+00
RMM:   3    -0.642055283731E+03    0.35111E+00   -0.47513E-01 11336   0.253E+00    0.331E+00
RMM:   4    -0.641998160723E+03    0.57123E-01   -0.14612E-01 12689   0.965E-01    0.197E+00
RMM:   5    -0.641996713139E+03    0.14476E-02   -0.43038E-02 11949   0.624E-01    0.206E+00
RMM:   6    -0.641978300602E+03    0.18413E-01   -0.23730E-02 12103   0.437E-01    0.109E+00
RMM:   7    -0.641975074787E+03    0.32258E-02   -0.11846E-02 11526   0.325E-01    0.914E-01
RMM:   8    -0.641977571625E+03   -0.24968E-02   -0.13581E-02 12315   0.326E-01    0.107E+00
RMM:   9    -0.641971016061E+03    0.65556E-02   -0.73924E-03 12374   0.256E-01    0.362E-01
RMM:  10    -0.641970932477E+03    0.83584E-04   -0.39727E-03 12616   0.160E-01    0.318E-01
RMM:  11    -0.641970720857E+03    0.21162E-03   -0.18514E-03 12234   0.105E-01    0.216E-01
RMM:  12    -0.641970411999E+03    0.30886E-03   -0.83911E-04 12051   0.635E-02    0.632E-02
RMM:  13    -0.641970499802E+03   -0.87803E-04   -0.55296E-04 11667   0.412E-02    0.102E-01
RMM:  14    -0.641970476491E+03    0.23311E-04   -0.26059E-04 11279   0.340E-02    0.529E-02
RMM:  15    -0.641970497819E+03   -0.21328E-04   -0.16619E-04 10971   0.267E-02    0.535E-02
RMM:  16    -0.641970496005E+03    0.18134E-05   -0.12498E-04 10464   0.203E-02    0.192E-02
RMM:  17    -0.641970511109E+03   -0.15103E-04   -0.66775E-05  9068   0.206E-02    0.439E-02
RMM:  18    -0.641970502273E+03    0.88353E-05   -0.35692E-05  6761   0.196E-02
  20 F= -.64197050E+03 E0= -.64190977E+03  d E =-.134685E-01
       N       E                     dE             d eps       ncg     rms          rms(c)
DAV:   1    -0.641966834269E+03    0.36768E-02   -0.38305E-01 11640   0.353E+00    0.407E-01
RMM:   2    -0.641982007916E+03   -0.15174E-01   -0.93670E-02 12511   0.927E-01    0.102E+00
RMM:   3    -0.641973110477E+03    0.88974E-02   -0.11522E-02 11106   0.401E-01    0.543E-01
RMM:   4    -0.641971698904E+03    0.14116E-02   -0.36167E-03 11771   0.161E-01    0.319E-01
RMM:   5    -0.641971635235E+03    0.63669E-04   -0.10868E-03 10498   0.105E-01    0.321E-01
RMM:   6    -0.641971169982E+03    0.46525E-03   -0.60260E-04 11314   0.739E-02    0.165E-01
RMM:   7    -0.641971101740E+03    0.68242E-04   -0.30844E-04  9206   0.580E-02    0.146E-01
RMM:   8    -0.641971165426E+03   -0.63686E-04   -0.34890E-04 10044   0.575E-02    0.172E-01
RMM:   9    -0.641971004028E+03    0.16140E-03   -0.19175E-04  9521   0.490E-02    0.681E-02
RMM:  10    -0.641970993999E+03    0.10029E-04   -0.99260E-05  7759   0.305E-02    0.494E-02
RMM:  11    -0.641970993924E+03    0.74680E-07   -0.47058E-05  6646   0.235E-02
  21 F= -.64197099E+03 E0= -.64191031E+03  d E =-.139602E-01
       N       E                     dE             d eps       ncg     rms          rms(c)
DAV:   1    -0.641850237542E+03    0.12076E+00   -0.82285E+00  9096   0.156E+01    0.836E-01
RMM:   2    -0.642017925439E+03   -0.16769E+00   -0.15075E+00 13619   0.336E+00    0.213E+00
RMM:   3    -0.641998168250E+03    0.19757E-01   -0.97041E-02 11958   0.101E+00    0.168E+00
RMM:   4    -0.641990040388E+03    0.81279E-02   -0.29087E-02 12462   0.455E-01    0.924E-01
RMM:   5    -0.641987862538E+03    0.21778E-02   -0.10738E-02 12305   0.256E-01    0.733E-01
RMM:   6    -0.641985587151E+03    0.22754E-02   -0.48888E-03 11894   0.181E-01    0.493E-01
RMM:   7    -0.641984694332E+03    0.89282E-03   -0.27324E-03 11400   0.130E-01    0.284E-01
RMM:   8    -0.641985281584E+03   -0.58725E-03   -0.35911E-03 12665   0.151E-01    0.411E-01
RMM:   9    -0.641984147906E+03    0.11337E-02   -0.17646E-03 12607   0.107E-01    0.166E-01
RMM:  10    -0.641984103630E+03    0.44276E-04   -0.69724E-04 11303   0.659E-02    0.118E-01
RMM:  11    -0.641984074081E+03    0.29549E-04   -0.35773E-04 10738   0.401E-02    0.652E-02
RMM:  12    -0.641984064736E+03    0.93445E-05   -0.17812E-04  9234   0.245E-02    0.392E-02
RMM:  13    -0.641984078973E+03   -0.14236E-04   -0.88449E-05  7478   0.226E-02    0.495E-02
RMM:  14    -0.641984071352E+03    0.76203E-05   -0.55715E-05  6802   0.200E-02
  22 F= -.64198407E+03 E0= -.64192349E+03  d E =-.130774E-01
       N       E                     dE             d eps       ncg     rms          rms(c)
DAV:   1    -0.641959796632E+03    0.24282E-01   -0.16044E+00  9120   0.688E+00    0.367E-01
RMM:   2    -0.641991870313E+03   -0.32074E-01   -0.29258E-01 13599   0.147E+00    0.886E-01
RMM:   3    -0.641988592940E+03    0.32774E-02   -0.18801E-02 11900   0.445E-01    0.738E-01
RMM:   4    -0.641987041736E+03    0.15512E-02   -0.56462E-03 11983   0.204E-01    0.408E-01
RMM:   5    -0.641986610099E+03    0.43164E-03   -0.21802E-03 11342   0.117E-01    0.317E-01
RMM:   6    -0.641986189418E+03    0.42068E-03   -0.99577E-04 10982   0.810E-02    0.218E-01
RMM:   7    -0.641986026254E+03    0.16316E-03   -0.55193E-04 10114   0.632E-02    0.129E-01
RMM:   8    -0.641986149519E+03   -0.12327E-03   -0.72466E-04 11880   0.683E-02    0.185E-01
RMM:   9    -0.641985920991E+03    0.22853E-03   -0.35709E-04 11191   0.552E-02    0.686E-02
RMM:  10    -0.641985918063E+03    0.29280E-05   -0.14069E-04  8150   0.339E-02    0.554E-02
RMM:  11    -0.641985910927E+03    0.71352E-05   -0.70286E-05  7261   0.227E-02
  23 F= -.64198591E+03 E0= -.64192534E+03  d E =-.149170E-01
       N       E                     dE             d eps       ncg     rms          rms(c)
DAV:   1    -0.641938885197E+03    0.47033E-01   -0.34513E+00  9000   0.938E+00    0.403E-01
RMM:   2    -0.641994403605E+03   -0.55518E-01   -0.57913E-01 13185   0.208E+00    0.409E-01
RMM:   3    -0.641997827977E+03   -0.34244E-02   -0.40127E-02 13176   0.493E-01    0.885E-01
RMM:   4    -0.641994578523E+03    0.32495E-02   -0.59840E-03 11988   0.230E-01    0.426E-01
RMM:   5    -0.641993800563E+03    0.77796E-03   -0.23810E-03 12043   0.114E-01    0.231E-01
RMM:   6    -0.641993835887E+03   -0.35324E-04   -0.12814E-03 11457   0.768E-02    0.254E-01
RMM:   7    -0.641993796105E+03    0.39781E-04   -0.14037E-03 11755   0.960E-02    0.273E-01
RMM:   8    -0.641993461626E+03    0.33448E-03   -0.76385E-04 10862   0.792E-02    0.153E-01
RMM:   9    -0.641993377521E+03    0.84105E-04   -0.43540E-04 10433   0.536E-02    0.796E-02
RMM:  10    -0.641993378799E+03   -0.12784E-05   -0.17367E-04  8082   0.360E-02    0.875E-02
RMM:  11    -0.641993340576E+03    0.38223E-04   -0.86658E-05  6647   0.259E-02    0.315E-02
RMM:  12    -0.641993339072E+03    0.15040E-05   -0.66847E-05  6877   0.195E-02
  24 F= -.64199334E+03 E0= -.64193283E+03  d E =-.742815E-02
       N       E                     dE             d eps       ncg     rms          rms(c)
DAV:   1    -0.641976263121E+03    0.17077E-01   -0.11955E+00  8976   0.552E+00    0.238E-01
RMM:   2    -0.641995495773E+03   -0.19233E-01   -0.20018E-01 13152   0.123E+00    0.248E-01
RMM:   3    -0.641996625267E+03   -0.11295E-02   -0.14887E-02 13201   0.303E-01    0.474E-01
RMM:   4    -0.641995745101E+03    0.88017E-03   -0.21875E-03 11546   0.144E-01    0.268E-01
RMM:   5    -0.641995442560E+03    0.30254E-03   -0.91040E-04 11211   0.718E-02    0.141E-01
RMM:   6    -0.641995446710E+03   -0.41503E-05   -0.46254E-04 10000   0.485E-02    0.144E-01
RMM:   7    -0.641995444037E+03    0.26728E-05   -0.53147E-04 11067   0.572E-02    0.157E-01
RMM:   8    -0.641995326655E+03    0.11738E-03   -0.28178E-04  9808   0.534E-02    0.942E-02
RMM:   9    -0.641995299977E+03    0.26678E-04   -0.14300E-04  8416   0.334E-02    0.538E-02
RMM:  10    -0.641995303424E+03   -0.34464E-05   -0.66058E-05  6391   0.270E-02
  25 F= -.64199530E+03 E0= -.64193477E+03  d E =-.939250E-02
       N       E                     dE             d eps       ncg     rms          rms(c)
DAV:   1    -0.641919983162E+03    0.75317E-01   -0.47907E+00  9096   0.111E+01    0.477E-01
RMM:   2    -0.641995365644E+03   -0.75382E-01   -0.78912E-01 13236   0.242E+00    0.461E-01
RMM:   3    -0.641999879328E+03   -0.45137E-02   -0.51620E-02 13318   0.574E-01    0.102E+00
RMM:   4    -0.641995326245E+03    0.45531E-02   -0.83522E-03 12087   0.273E-01    0.451E-01
RMM:   5    -0.641994363727E+03    0.96252E-03   -0.34195E-03 12252   0.126E-01    0.245E-01
RMM:   6    -0.641994620973E+03   -0.25725E-03   -0.18524E-03 11498   0.961E-02    0.357E-01
RMM:   7    -0.641994295857E+03    0.32512E-03   -0.18046E-03 12175   0.107E-01    0.269E-01
RMM:   8    -0.641994080767E+03    0.21509E-03   -0.11045E-03 11361   0.882E-02    0.233E-01
RMM:   9    -0.641993857208E+03    0.22356E-03   -0.55880E-04 10391   0.661E-02    0.905E-02
RMM:  10    -0.641993851211E+03    0.59978E-05   -0.27480E-04  9227   0.395E-02    0.833E-02
RMM:  11    -0.641993817884E+03    0.33327E-04   -0.13003E-04  7369   0.280E-02    0.438E-02
RMM:  12    -0.641993814553E+03    0.33312E-05   -0.93994E-05  7563   0.221E-02
  26 F= -.64199381E+03 E0= -.64193330E+03  d E =-.790363E-02
       N       E                     dE             d eps       ncg     rms          rms(c)
DAV:   1    -0.641956570257E+03    0.37248E-01   -0.25311E+00  9048   0.804E+00    0.347E-01
RMM:   2    -0.641996774801E+03   -0.40205E-01   -0.41640E-01 13145   0.176E+00    0.418E-01
RMM:   3    -0.641998783276E+03   -0.20085E-02   -0.28890E-02 12772   0.445E-01    0.752E-01
RMM:   4    -0.641997032763E+03    0.17505E-02   -0.47811E-03 11778   0.198E-01    0.474E-01
RMM:   5    -0.641995967961E+03    0.10648E-02   -0.16908E-03 10839   0.113E-01    0.195E-01
RMM:   6    -0.641995948437E+03    0.19524E-04   -0.10086E-03 10952   0.704E-02    0.197E-01
RMM:   7    -0.641995866865E+03    0.81572E-04   -0.10176E-03 11486   0.755E-02    0.183E-01
RMM:   8    -0.641995688125E+03    0.17874E-03   -0.62699E-04 10796   0.679E-02    0.122E-01
RMM:   9    -0.641995629493E+03    0.58632E-04   -0.25825E-04  9492   0.495E-02    0.757E-02
RMM:  10    -0.641995631352E+03   -0.18594E-05   -0.11274E-04  7100   0.305E-02    0.732E-02
RMM:  11    -0.641995604078E+03    0.27273E-04   -0.54739E-05  5959   0.255E-02    0.354E-02
RMM:  12    -0.641995601279E+03    0.27998E-05   -0.35364E-05  5917   0.166E-02
  27 F= -.64199560E+03 E0= -.64193506E+03  d E =-.969035E-02
       N       E                     dE             d eps       ncg     rms          rms(c)
DAV:   1    -0.641943702192E+03    0.51902E-01   -0.31562E+00  8760   0.910E+00    0.415E-01
RMM:   2    -0.642003865824E+03   -0.60164E-01   -0.59993E-01 12953   0.203E+00    0.768E-01
RMM:   3    -0.642004034552E+03   -0.16873E-03   -0.46638E-02 12482   0.504E-01    0.691E-01
RMM:   4    -0.642003142750E+03    0.89180E-03   -0.61448E-03 11792   0.209E-01    0.575E-01
RMM:   5    -0.642001708046E+03    0.14347E-02   -0.21349E-03 10833   0.124E-01    0.310E-01
RMM:   6    -0.642001361492E+03    0.34655E-03   -0.12327E-03 10821   0.832E-02    0.193E-01
RMM:   7    -0.642001361014E+03    0.47814E-06   -0.12398E-03 11410   0.801E-02    0.213E-01
RMM:   8    -0.642001331596E+03    0.29418E-04   -0.85656E-04 10573   0.900E-02    0.262E-01
RMM:   9    -0.642000992193E+03    0.33940E-03   -0.43466E-04  9927   0.640E-02    0.686E-02
RMM:  10    -0.642001013724E+03   -0.21532E-04   -0.22441E-04  8730   0.377E-02    0.774E-02
RMM:  11    -0.642000983804E+03    0.29920E-04   -0.93382E-05  6448   0.262E-02    0.395E-02
RMM:  12    -0.642000978946E+03    0.48580E-05   -0.52187E-05  6155   0.190E-02
  28 F= -.64200098E+03 E0= -.64194071E+03  d E =-.537767E-02
       N       E                     dE             d eps       ncg     rms          rms(c)
DAV:   1    -0.641931871829E+03    0.69112E-01   -0.38968E+00  8760   0.101E+01    0.462E-01
RMM:   2    -0.642006740399E+03   -0.74869E-01   -0.74720E-01 12993   0.228E+00    0.836E-01
RMM:   3    -0.642007224993E+03   -0.48459E-03   -0.58429E-02 12528   0.566E-01    0.762E-01
RMM:   4    -0.642005912913E+03    0.13121E-02   -0.77292E-03 12006   0.232E-01    0.605E-01
RMM:   5    -0.642004377693E+03    0.15352E-02   -0.27430E-03 11204   0.136E-01    0.340E-01
RMM:   6    -0.642004012234E+03    0.36546E-03   -0.16465E-03 11056   0.890E-02    0.222E-01
RMM:   7    -0.642004074742E+03   -0.62508E-04   -0.15556E-03 11506   0.899E-02    0.260E-01
RMM:   8    -0.642003804760E+03    0.26998E-03   -0.11150E-03 11235   0.975E-02    0.217E-01
RMM:   9    -0.642003609614E+03    0.19515E-03   -0.53243E-04 10137   0.669E-02    0.124E-01
RMM:  10    -0.642003580814E+03    0.28800E-04   -0.27515E-04  9060   0.432E-02    0.766E-02
RMM:  11    -0.642003554774E+03    0.26040E-04   -0.12970E-04  7208   0.287E-02    0.469E-02
RMM:  12    -0.642003547603E+03    0.71709E-05   -0.70392E-05  6505   0.214E-02
  29 F= -.64200355E+03 E0= -.64194357E+03  d E =-.794632E-02
       N       E                     dE             d eps       ncg     rms          rms(c)
DAV:   1    -0.641957698910E+03    0.45856E-01   -0.26976E+00  8784   0.862E+00    0.502E-01
RMM:   2    -0.642015918428E+03   -0.58220E-01   -0.54921E-01 13707   0.191E+00    0.953E-01
RMM:   3    -0.642011782559E+03    0.41359E-02   -0.43219E-02 12246   0.563E-01    0.804E-01
RMM:   4    -0.642010191193E+03    0.15914E-02   -0.85208E-03 12506   0.231E-01    0.604E-01
RMM:   5    -0.642009205686E+03    0.98551E-03   -0.30191E-03 11206   0.150E-01    0.395E-01
RMM:   6    -0.642008304249E+03    0.90144E-03   -0.16178E-03 12119   0.963E-02    0.187E-01
RMM:   7    -0.642008384420E+03   -0.80172E-04   -0.99876E-04 11054   0.799E-02    0.236E-01
RMM:   8    -0.642008450632E+03   -0.66212E-04   -0.12063E-03 11540   0.986E-02    0.287E-01
RMM:   9    -0.642008001565E+03    0.44907E-03   -0.52634E-04 10621   0.725E-02    0.990E-02
RMM:  10    -0.642007997982E+03    0.35827E-05   -0.30489E-04 10670   0.427E-02    0.786E-02
RMM:  11    -0.642007981027E+03    0.16955E-04   -0.14709E-04  8757   0.261E-02    0.381E-02
RMM:  12    -0.642007977026E+03    0.40011E-05   -0.72754E-05  6485   0.191E-02
  30 F= -.64200798E+03 E0= -.64194855E+03  d E =-.442942E-02
       N       E                     dE             d eps       ncg     rms          rms(c)
DAV:   1    -0.641997416008E+03    0.10565E-01   -0.63218E-01  9024   0.417E+00    0.247E-01
RMM:   2    -0.642011428900E+03   -0.14013E-01   -0.12655E-01 13533   0.909E-01    0.570E-01
RMM:   3    -0.642009653230E+03    0.17757E-02   -0.95408E-03 11543   0.283E-01    0.384E-01
RMM:   4    -0.642009213681E+03    0.43955E-03   -0.22788E-03 11541   0.125E-01    0.273E-01
RMM:   5    -0.642009077063E+03    0.13662E-03   -0.81864E-04 10053   0.767E-02    0.218E-01
RMM:   6    -0.642008844973E+03    0.23209E-03   -0.38899E-04  9910   0.511E-02    0.105E-01
RMM:   7    -0.642008827083E+03    0.17891E-04   -0.24883E-04  9303   0.390E-02    0.957E-02
RMM:   8    -0.642008853001E+03   -0.25918E-04   -0.31025E-04 10656   0.481E-02    0.119E-01
RMM:   9    -0.642008769177E+03    0.83824E-04   -0.13244E-04  8510   0.405E-02    0.541E-02
RMM:  10    -0.642008761584E+03    0.75931E-05   -0.80538E-05  7481   0.233E-02
  31 F= -.64200876E+03 E0= -.64194959E+03  d E =-.521398E-02
       N       E                     dE             d eps       ncg     rms          rms(c)
DAV:   1    -0.641978582511E+03    0.30187E-01   -0.28907E+00  9936   0.888E+00    0.102E+00
RMM:   2    -0.642083580409E+03   -0.10500E+00   -0.68060E-01 12473   0.230E+00    0.264E+00
RMM:   3    -0.642031124768E+03    0.52456E-01   -0.74038E-02 11322   0.956E-01    0.181E+00
RMM:   4    -0.642017587114E+03    0.13538E-01   -0.24925E-02 11864   0.421E-01    0.967E-01
RMM:   5    -0.642014872586E+03    0.27145E-02   -0.91912E-03 11647   0.263E-01    0.613E-01
RMM:   6    -0.642013601179E+03    0.12714E-02   -0.45348E-03 12177   0.169E-01    0.560E-01
RMM:   7    -0.642012246335E+03    0.13548E-02   -0.18009E-03 10295   0.138E-01    0.293E-01
RMM:   8    -0.642012540069E+03   -0.29373E-03   -0.26816E-03 12639   0.133E-01    0.329E-01
RMM:   9    -0.642011765649E+03    0.77442E-03   -0.13030E-03 12884   0.944E-02    0.127E-01
RMM:  10    -0.642011780795E+03   -0.15145E-04   -0.53590E-04 11116   0.648E-02    0.132E-01
RMM:  11    -0.642011720749E+03    0.60046E-04   -0.24783E-04 10767   0.415E-02    0.769E-02
RMM:  12    -0.642011687520E+03    0.33228E-04   -0.14353E-04 10257   0.238E-02    0.290E-02
RMM:  13    -0.642011696790E+03   -0.92695E-05   -0.68293E-05  7545   0.184E-02
  32 F= -.64201170E+03 E0= -.64195281E+03  d E =-.293521E-02
       N       E                     dE             d eps       ncg     rms          rms(c)
DAV:   1    -0.642011697176E+03   -0.96558E-05   -0.15724E-04 12936   0.543E-02    0.258E-02
RMM:   2    -0.642011763157E+03   -0.65981E-04   -0.69144E-05  6674   0.258E-02    0.104E-01
RMM:   3    -0.642011700011E+03    0.63146E-04   -0.26148E-05  5528   0.253E-02    0.274E-02
RMM:   4    -0.642011697847E+03    0.21640E-05   -0.83148E-06  5113   0.120E-02
  33 F= -.64201170E+03 E0= -.64195284E+03  d E =-.293626E-02
       N       E                     dE             d eps       ncg     rms          rms(c)
DAV:   1    -0.641969311456E+03    0.42389E-01   -0.24472E+00  9120   0.837E+00    0.361E-01
RMM:   2    -0.642018026128E+03   -0.48715E-01   -0.47193E-01 13238   0.174E+00    0.791E-01
RMM:   3    -0.642016600872E+03    0.14253E-02   -0.31819E-02 12052   0.472E-01    0.657E-01
RMM:   4    -0.642015577704E+03    0.10232E-02   -0.62650E-03 11731   0.210E-01    0.425E-01
RMM:   5    -0.642014973093E+03    0.60461E-03   -0.19394E-03 10612   0.117E-01    0.321E-01
RMM:   6    -0.642014505352E+03    0.46774E-03   -0.91262E-04 10345   0.765E-02    0.140E-01
RMM:   7    -0.642014568227E+03   -0.62875E-04   -0.60401E-04 10075   0.592E-02    0.187E-01
RMM:   8    -0.642014536962E+03    0.31265E-04   -0.81060E-04 11192   0.690E-02    0.183E-01
RMM:   9    -0.642014325064E+03    0.21190E-03   -0.32962E-04  9947   0.569E-02    0.624E-02
RMM:  10    -0.642014329713E+03   -0.46488E-05   -0.17012E-04  8442   0.315E-02    0.609E-02
RMM:  11    -0.642014330308E+03   -0.59527E-06   -0.72687E-05  6338   0.265E-02
  34 F= -.64201433E+03 E0= -.64195589E+03  d E =-.263246E-02
       N       E                     dE             d eps       ncg     rms          rms(c)
DAV:   1    -0.642000330223E+03    0.13999E-01   -0.77132E-01  9024   0.470E+00    0.204E-01
RMM:   2    -0.642015867751E+03   -0.15538E-01   -0.15232E-01 13073   0.991E-01    0.411E-01
RMM:   3    -0.642015431537E+03    0.43621E-03   -0.10148E-02 11780   0.259E-01    0.352E-01
RMM:   4    -0.642015026735E+03    0.40480E-03   -0.19606E-03 11098   0.117E-01    0.183E-01
RMM:   5    -0.642014895153E+03    0.13158E-03   -0.61749E-04 10079   0.625E-02    0.151E-01
RMM:   6    -0.642014795987E+03    0.99166E-04   -0.23514E-04  8687   0.399E-02    0.775E-02
RMM:   7    -0.642014845614E+03   -0.49627E-04   -0.18077E-04  8608   0.352E-02    0.130E-01
RMM:   8    -0.642014819406E+03    0.26208E-04   -0.25196E-04  9837   0.394E-02    0.105E-01
RMM:   9    -0.642014750204E+03    0.69202E-04   -0.11450E-04  8507   0.310E-02    0.254E-02
RMM:  10    -0.642014756804E+03   -0.66007E-05   -0.49023E-05  6388   0.204E-02
  35 F= -.64201476E+03 E0= -.64195666E+03  d E =-.305896E-02
       N       E                     dE             d eps       ncg     rms          rms(c)
DAV:   1    -0.642002878029E+03    0.11872E-01   -0.60980E-01  9048   0.442E+00    0.191E-01
RMM:   2    -0.642016463644E+03   -0.13586E-01   -0.13459E-01 13548   0.942E-01    0.359E-01
RMM:   3    -0.642016640723E+03   -0.17708E-03   -0.96957E-03 12146   0.246E-01    0.328E-01
RMM:   4    -0.642016394757E+03    0.24597E-03   -0.16400E-03 11227   0.108E-01    0.244E-01
RMM:   5    -0.642016167669E+03    0.22709E-03   -0.50803E-04  9272   0.639E-02    0.139E-01
RMM:   6    -0.642016088410E+03    0.79260E-04   -0.26398E-04  9007   0.387E-02    0.766E-02
RMM:   7    -0.642016101105E+03   -0.12695E-04   -0.17553E-04  9262   0.319E-02    0.944E-02
RMM:   8    -0.642016104353E+03   -0.32477E-05   -0.22094E-04  9547   0.413E-02    0.108E-01
RMM:   9    -0.642016037096E+03    0.67257E-04   -0.91213E-05  7594   0.331E-02    0.355E-02
RMM:  10    -0.642016042835E+03   -0.57393E-05   -0.52112E-05  6351   0.208E-02
  36 F= -.64201604E+03 E0= -.64195794E+03  d E =-.128603E-02
       N       E                     dE             d eps       ncg     rms          rms(c)
DAV:   1    -0.642005575028E+03    0.10462E-01   -0.50783E-01  9216   0.404E+00    0.172E-01
RMM:   2    -0.642016449542E+03   -0.10875E-01   -0.10973E-01 13549   0.846E-01    0.260E-01
RMM:   3    -0.642016923030E+03   -0.47349E-03   -0.78696E-03 12124   0.231E-01    0.341E-01
RMM:   4    -0.642016628041E+03    0.29499E-03   -0.13679E-03 11046   0.104E-01    0.232E-01
RMM:   5    -0.642016414022E+03    0.21402E-03   -0.46933E-04  8894   0.620E-02    0.116E-01
RMM:   6    -0.642016364242E+03    0.49779E-04   -0.23817E-04  8749   0.354E-02    0.738E-02
RMM:   7    -0.642016367858E+03   -0.36158E-05   -0.15051E-04  8916   0.292E-02    0.791E-02
RMM:   8    -0.642016341321E+03    0.26537E-04   -0.23694E-04 10170   0.365E-02    0.662E-02
RMM:   9    -0.642016323585E+03    0.17736E-04   -0.43987E-05  5884   0.264E-02    0.390E-02
RMM:  10    -0.642016323931E+03   -0.34580E-06   -0.36876E-05  6184   0.207E-02
  37 F= -.64201632E+03 E0= -.64195820E+03  d E =-.156713E-02
       N       E                     dE             d eps       ncg     rms          rms(c)
DAV:   1    -0.642004136968E+03    0.12187E-01   -0.76011E-01 10080   0.499E+00    0.418E-01
RMM:   2    -0.642028048081E+03   -0.23911E-01   -0.19113E-01 13162   0.108E+00    0.997E-01
RMM:   3    -0.642019840766E+03    0.82073E-02   -0.14414E-02 11303   0.410E-01    0.656E-01
RMM:   4    -0.642017994858E+03    0.18459E-02   -0.47012E-03 11518   0.183E-01    0.357E-01
RMM:   5    -0.642017873793E+03    0.12107E-03   -0.16886E-03 10468   0.118E-01    0.324E-01
RMM:   6    -0.642017399522E+03    0.47427E-03   -0.74647E-04 11038   0.778E-02    0.202E-01
RMM:   7    -0.642017257304E+03    0.14222E-03   -0.38611E-04  9150   0.591E-02    0.134E-01
RMM:   8    -0.642017335899E+03   -0.78594E-04   -0.50643E-04 11353   0.600E-02    0.173E-01
RMM:   9    -0.642017164984E+03    0.17092E-03   -0.24216E-04  9598   0.549E-02    0.769E-02
RMM:  10    -0.642017150388E+03    0.14596E-04   -0.15868E-04  9682   0.332E-02    0.468E-02
RMM:  11    -0.642017144837E+03    0.55511E-05   -0.65163E-05  7259   0.220E-02
  38 F= -.64201714E+03 E0= -.64195890E+03  d E =-.820906E-03
       N       E                     dE             d eps       ncg     rms          rms(c)
DAV:   1    -0.642017082841E+03    0.67547E-04   -0.44537E-03 11304   0.381E-01    0.383E-02
RMM:   2    -0.642017321712E+03   -0.23887E-03   -0.11509E-03 10477   0.868E-02    0.156E-01
RMM:   3    -0.642017169690E+03    0.15202E-03   -0.12354E-04  7010   0.490E-02    0.534E-02
RMM:   4    -0.642017154512E+03    0.15178E-04   -0.40213E-05  5831   0.243E-02    0.256E-02
RMM:   5    -0.642017154101E+03    0.41127E-06   -0.16974E-05  5331   0.190E-02
  39 F= -.64201715E+03 E0= -.64195892E+03  d E =-.830170E-03
       N       E                     dE             d eps       ncg     rms          rms(c)
DAV:   1    -0.642013390509E+03    0.37640E-02   -0.23591E-01 10704   0.289E+00    0.272E-01
RMM:   2    -0.642023699377E+03   -0.10309E-01   -0.67845E-02 12892   0.709E-01    0.817E-01
RMM:   3    -0.642019072009E+03    0.46274E-02   -0.67465E-03 11017   0.278E-01    0.481E-01
RMM:   4    -0.642017942310E+03    0.11297E-02   -0.20851E-03 11133   0.133E-01    0.197E-01
RMM:   5    -0.642017842653E+03    0.99657E-04   -0.71673E-04 10490   0.731E-02    0.165E-01
RMM:   6    -0.642017760620E+03    0.82034E-04   -0.28995E-04  9677   0.507E-02    0.158E-01
RMM:   7    -0.642017664916E+03    0.95703E-04   -0.14468E-04  8099   0.392E-02    0.858E-02
RMM:   8    -0.642017688010E+03   -0.23093E-04   -0.19718E-04  9409   0.416E-02    0.949E-02
RMM:   9    -0.642017624270E+03    0.63740E-04   -0.11428E-04  8574   0.322E-02    0.372E-02
RMM:  10    -0.642017626729E+03   -0.24590E-05   -0.39410E-05  5945   0.233E-02
  40 F= -.64201763E+03 E0= -.64195941E+03  d E =-.472628E-03
       N       E                     dE             d eps       ncg     rms          rms(c)
DAV:   1    -0.642017594053E+03    0.30216E-04   -0.18040E-03 11856   0.254E-01    0.383E-02
RMM:   2    -0.642017885934E+03   -0.29188E-03   -0.69472E-04 10343   0.726E-02    0.198E-01
RMM:   3    -0.642017637850E+03    0.24808E-03   -0.11787E-04  7302   0.486E-02    0.518E-02
RMM:   4    -0.642017621437E+03    0.16412E-04   -0.34083E-05  5880   0.236E-02    0.204E-02
RMM:   5    -0.642017621410E+03    0.27772E-07   -0.10526E-05  5042   0.154E-02
  41 F= -.64201762E+03 E0= -.64195945E+03  d E =-.467309E-03
       N       E                     dE             d eps       ncg     rms          rms(c)
DAV:   1    -0.642015256005E+03    0.23654E-02   -0.11541E-01  9480   0.207E+00    0.974E-02
RMM:   2    -0.642018207352E+03   -0.29513E-02   -0.27905E-02 13859   0.415E-01    0.246E-01
RMM:   3    -0.642018105719E+03    0.10163E-03   -0.14882E-03 11180   0.123E-01    0.222E-01
RMM:   4    -0.642017951132E+03    0.15459E-03   -0.43469E-04 10420   0.642E-02    0.990E-02
RMM:   5    -0.642017904843E+03    0.46289E-04   -0.12497E-04  7695   0.374E-02    0.608E-02
RMM:   6    -0.642017881102E+03    0.23741E-04   -0.62106E-05  6699   0.237E-02    0.358E-02
RMM:   7    -0.642017886306E+03   -0.52039E-05   -0.35074E-05  5888   0.214E-02
  42 F= -.64201789E+03 E0= -.64195961E+03  d E =-.264896E-03
       N       E                     dE             d eps       ncg     rms          rms(c)
DAV:   1    -0.642014677358E+03    0.32037E-02   -0.14114E-01  9384   0.230E+00    0.114E-01
RMM:   2    -0.642018481029E+03   -0.38037E-02   -0.34922E-02 13804   0.468E-01    0.288E-01
RMM:   3    -0.642018089499E+03    0.39153E-03   -0.19670E-03 11541   0.134E-01    0.185E-01
RMM:   4    -0.642017990368E+03    0.99131E-04   -0.55069E-04 10605   0.698E-02    0.111E-01
RMM:   5    -0.642017962734E+03    0.27633E-04   -0.20313E-04  9144   0.382E-02    0.107E-01
RMM:   6    -0.642017916161E+03    0.46573E-04   -0.66801E-05  6282   0.268E-02    0.517E-02
RMM:   7    -0.642017908951E+03    0.72103E-05   -0.55606E-05  6640   0.222E-02
  43 F= -.64201791E+03 E0= -.64195955E+03  d E =-.287541E-03
       N       E                     dE             d eps       ncg     rms          rms(c)
DAV:   1    -0.642017505313E+03    0.41085E-03   -0.19597E-02  9600   0.843E-01    0.630E-02
RMM:   2    -0.642018363325E+03   -0.85801E-03   -0.53843E-03 13167   0.186E-01    0.244E-01
RMM:   3    -0.642017990906E+03    0.37242E-03   -0.40274E-04  9302   0.758E-02    0.107E-01
RMM:   4    -0.642017942876E+03    0.48030E-04   -0.12099E-04  7727   0.388E-02    0.640E-02
RMM:   5    -0.642017931101E+03    0.11775E-04   -0.33593E-05  5660   0.248E-02    0.437E-02
RMM:   6    -0.642017923551E+03    0.75504E-05   -0.15593E-05  5303   0.193E-02
  44 F= -.64201792E+03 E0= -.64195958E+03  d E =-.302141E-03
       N       E                     dE             d eps       ncg     rms          rms(c)
DAV:   1    -0.642015605717E+03    0.23254E-02   -0.86871E-02  9552   0.195E+00    0.134E-01
RMM:   2    -0.642018663344E+03   -0.30576E-02   -0.27479E-02 13946   0.406E-01    0.267E-01
RMM:   3    -0.642018143669E+03    0.51967E-03   -0.19751E-03 10232   0.149E-01    0.180E-01
RMM:   4    -0.642018043702E+03    0.99967E-04   -0.54516E-04 10964   0.654E-02    0.118E-01
RMM:   5    -0.642018036653E+03    0.70486E-05   -0.16067E-04  8359   0.411E-02    0.120E-01
RMM:   6    -0.642017964673E+03    0.71981E-04   -0.56646E-05  6274   0.277E-02    0.477E-02
RMM:   7    -0.642017963502E+03    0.11705E-05   -0.39727E-05  5929   0.226E-02
  45 F= -.64201796E+03 E0= -.64195961E+03  d E =-.399513E-04
       N       E                     dE             d eps       ncg     rms          rms(c)
DAV:   1    -0.642017962482E+03    0.21909E-05   -0.59517E-04 13776   0.152E-01    0.611E-02
RMM:   2    -0.642018916173E+03   -0.95369E-03   -0.92786E-04  9384   0.889E-02    0.407E-01
RMM:   3    -0.642018001788E+03    0.91438E-03   -0.33799E-04  7844   0.818E-02    0.910E-02
RMM:   4    -0.642017949065E+03    0.52723E-04   -0.60746E-05  6773   0.262E-02    0.216E-02
RMM:   5    -0.642017949485E+03   -0.41972E-06   -0.10848E-05  5035   0.181E-02
  46 F= -.64201795E+03 E0= -.64195956E+03  d E =-.259339E-04
       N       E                     dE             d eps       ncg     rms          rms(c)
DAV:   1    -0.642017947794E+03    0.12711E-05   -0.30460E-04 12840   0.110E-01    0.208E-02
RMM:   2    -0.642018067563E+03   -0.11977E-03   -0.14992E-04  8082   0.342E-02    0.149E-01
RMM:   3    -0.642017961088E+03    0.10648E-03   -0.34204E-05  5719   0.284E-02    0.407E-02
RMM:   4    -0.642017951636E+03    0.94519E-05   -0.99749E-06  4963   0.141E-02
  47 F= -.64201795E+03 E0= -.64195955E+03  d E =-.280850E-04
       N       E                     dE             d eps       ncg     rms          rms(c)
DAV:   1    -0.642015788125E+03    0.21730E-02   -0.72611E-02  9240   0.186E+00    0.108E-01
RMM:   2    -0.642018549920E+03   -0.27618E-02   -0.24824E-02 14014   0.372E-01    0.263E-01
RMM:   3    -0.642018253047E+03    0.29687E-03   -0.17056E-03 10071   0.126E-01    0.178E-01
RMM:   4    -0.642018147000E+03    0.10605E-03   -0.42127E-04 10461   0.605E-02    0.106E-01
RMM:   5    -0.642018122628E+03    0.24372E-04   -0.12151E-04  7645   0.369E-02    0.880E-02
RMM:   6    -0.642018090102E+03    0.32525E-04   -0.47691E-05  5940   0.253E-02    0.591E-02
RMM:   7    -0.642018078159E+03    0.11943E-04   -0.29514E-05  5646   0.211E-02    0.343E-02
RMM:   8    -0.642018086921E+03   -0.87619E-05   -0.37577E-05  6173   0.204E-02
  48 F= -.64201809E+03 E0= -.64195960E+03  d E =-.135285E-03
       N       E                     dE             d eps       ncg     rms          rms(c)
DAV:   1    -0.642017562424E+03    0.51574E-03   -0.18431E-02  9840   0.926E-01    0.549E-02
RMM:   2    -0.642018306505E+03   -0.74408E-03   -0.58760E-03 13198   0.181E-01    0.185E-01
RMM:   3    -0.642018117059E+03    0.18945E-03   -0.38821E-04  8905   0.720E-02    0.745E-02
RMM:   4    -0.642018103250E+03    0.13809E-04   -0.12195E-04  8297   0.342E-02    0.566E-02
RMM:   5    -0.642018101113E+03    0.21363E-05   -0.35261E-05  5705   0.229E-02
  49 F= -.64201810E+03 E0= -.64195956E+03  d E =-.149478E-03
       N       E                     dE             d eps       ncg     rms          rms(c)
DAV:   1    -0.642018974552E+03   -0.87130E-03   -0.45740E-02 12432   0.115E+00    0.318E-01
RMM:   2    -0.642024840002E+03   -0.58654E-02   -0.19203E-02 11333   0.497E-01    0.848E-01
RMM:   3    -0.642019733891E+03    0.51061E-02   -0.52205E-03 10251   0.296E-01    0.503E-01
RMM:   4    -0.642018439839E+03    0.12941E-02   -0.14114E-03 10706   0.127E-01    0.258E-01
RMM:   5    -0.642018279696E+03    0.16014E-03   -0.53276E-04  9881   0.795E-02    0.198E-01
RMM:   6    -0.642018237006E+03    0.42690E-04   -0.36157E-04  9731   0.613E-02    0.210E-01
RMM:   7    -0.642018026612E+03    0.21039E-03   -0.15671E-04  7820   0.506E-02    0.714E-02
RMM:   8    -0.642018053673E+03   -0.27061E-04   -0.17880E-04  9734   0.384E-02    0.908E-02
RMM:   9    -0.642018000081E+03    0.53592E-04   -0.64674E-05  7070   0.322E-02    0.412E-02
RMM:  10    -0.642017992844E+03    0.72374E-05   -0.30961E-05  5764   0.220E-02
  50 F= -.64201799E+03 E0= -.64195942E+03  d E =0.108270E-03
       N       E                     dE             d eps       ncg     rms          rms(c)
DAV:   1    -0.642018600915E+03   -0.60083E-03   -0.25335E-02 12432   0.856E-01    0.231E-01
RMM:   2    -0.642021927055E+03   -0.33261E-02   -0.10315E-02 11455   0.370E-01    0.648E-01
RMM:   3    -0.642019075559E+03    0.28515E-02   -0.27788E-03 10219   0.218E-01    0.388E-01
RMM:   4    -0.642018366254E+03    0.70931E-03   -0.78945E-04 10708   0.100E-01    0.209E-01
RMM:   5    -0.642018232914E+03    0.13334E-03   -0.30214E-04 10088   0.585E-02    0.136E-01
RMM:   6    -0.642018228018E+03    0.48961E-05   -0.19960E-04  9174   0.477E-02    0.157E-01
RMM:   7    -0.642018107650E+03    0.12037E-03   -0.86342E-05  7420   0.383E-02    0.508E-02
RMM:   8    -0.642018114218E+03   -0.65678E-05   -0.88305E-05  7530   0.285E-02
  51 F= -.64201811E+03 E0= -.64195962E+03  d E =-.131045E-04
       N       E                     dE             d eps       ncg     rms          rms(c)
DAV:   1    -0.642018099392E+03    0.82581E-05   -0.47548E-04 13320   0.125E-01    0.398E-02
RMM:   2    -0.642018289376E+03   -0.18998E-03   -0.32940E-04  9009   0.574E-02    0.161E-01
RMM:   3    -0.642018112282E+03    0.17709E-03   -0.92912E-05  7060   0.455E-02    0.548E-02
RMM:   4    -0.642018095767E+03    0.16515E-04   -0.22496E-05  5514   0.207E-02    0.342E-02
RMM:   5    -0.642018092956E+03    0.28115E-05   -0.88108E-06  4586   0.156E-02
  52 F= -.64201809E+03 E0= -.64195958E+03  d E =0.815781E-05
       N       E                     dE             d eps       ncg     rms          rms(c)
DAV:   1    -0.642018093294E+03    0.24736E-05   -0.42769E-05  8400   0.373E-02    0.210E-02
RMM:   2    -0.642018174591E+03   -0.81298E-04   -0.71917E-05  6908   0.311E-02    0.120E-01
RMM:   3    -0.642018101001E+03    0.73590E-04   -0.24991E-05  5606   0.250E-02    0.399E-02
RMM:   4    -0.642018093601E+03    0.73994E-05   -0.74539E-06  4663   0.121E-02
  53 F= -.64201809E+03 E0= -.64195957E+03  d E =0.751201E-05
       N       E                     dE             d eps       ncg     rms          rms(c)
DAV:   1    -0.642018092895E+03    0.81059E-05   -0.15328E-05  5376   0.247E-02    0.916E-03
RMM:   2    -0.642018117321E+03   -0.24426E-04   -0.16217E-05  5385   0.172E-02    0.673E-02
RMM:   3    -0.642018093914E+03    0.23408E-04   -0.91529E-06  4998   0.160E-02    0.121E-02
RMM:   4    -0.642018093387E+03    0.52687E-06   -0.21191E-06  4405   0.510E-03
  54 F= -.64201809E+03 E0= -.64195958E+03  d E =0.772645E-05
       N       E                     dE             d eps       ncg     rms          rms(c)
DAV:   1    -0.642018009793E+03    0.84120E-04   -0.75308E-03  8880   0.460E-01    0.246E-02
RMM:   2    -0.642018142843E+03   -0.13305E-03   -0.13955E-03 13075   0.115E-01    0.319E-02
RMM:   3    -0.642018147047E+03   -0.42040E-05   -0.90173E-05  6962   0.322E-02
  55 F= -.64201815E+03 E0= -.64195964E+03  d E =-.536601E-04
