HECN                                    
           1
     8.860328    0.002421   -0.008163
     0.008210    8.883761   -0.006663
     0.023690   -0.021868    8.863794
   Zr   V    Ti   N    C    Nb   Ta
     7     6     7    13    19     6     6
Direct configuration=     1
   0.99546940  0.00622080  0.99657209
   0.25176663  0.00545661  0.24939327
   0.24838509  0.49361958  0.24818623
   0.49765338  0.49948035  0.99897375
   0.50149879  0.24643548  0.74605318
   0.00337405  0.50068444  0.50093119
   0.49449348  0.75226813  0.75464209
   0.98151682  0.23120048  0.26995416
   0.77035329  0.73548432  0.99855156
   0.00744819  0.26866731  0.73821038
   0.76401642  0.25937762  0.49406047
   0.00033151  0.72744470  0.75565204
   0.24757150  0.49060194  0.74973613
   0.24585583  0.25216369  0.99344337
   0.51652833  0.25002999  0.25146164
   0.75000485  0.00112483  0.24541791
   0.75483024  0.25850511  0.99951573
   0.23521611  0.74534742  0.99427432
   0.24390204  0.25102262  0.50262225
   0.24614305  0.75004768  0.50344448
   0.24499652  0.24890555  0.24904918
   0.25393380  0.00211975  0.99482414
   0.00123743  0.25365638  0.00076408
   0.75319080  0.24788323  0.25277313
   0.74840652  0.00242558  0.00643598
   0.50795463  0.00574341  0.25228680
   0.99347130  0.49550482  0.24573640
   0.49736631  0.75611949  0.00413320
   0.99748412  0.00713248  0.74570262
   0.76235471  0.24957873  0.75070729
   0.74880257  0.00290352  0.50107136
   0.50284895  0.24930019  0.49322603
   0.50053249  0.99962249  0.75060815
   0.99234957  0.00418202  0.25569597
   0.50206217  0.24600772  0.00486486
   0.24764249  0.74979870  0.24669825
   0.24471536  0.49830281  0.99135743
   0.99805561  0.74625630  0.99704886
   0.75077023  0.75136841  0.24631352
   0.75506542  0.50109087  0.00080849
   0.50541225  0.49601186  0.25382221
   0.24143002  0.25354494  0.74807638
   0.24759947  0.00085335  0.50168330
   0.99892077  0.24744577  0.50293956
   0.23633992  0.74925845  0.75042344
   0.25450119  0.49779420  0.50624847
   0.99876368  0.75582063  0.50516571
   0.00309510  0.49916095  0.75130154
   0.75846340  0.75063846  0.75530775
   0.74723976  0.49475666  0.49916624
   0.49836716  0.74875846  0.49809108
   0.50031592  0.49861003  0.74453860
   0.50970491  0.00827794  0.00477818
   0.00185002  0.49661024  0.99429127
   0.49753682  0.75077780  0.24856661
   0.24635412  0.00502863  0.74547249
   0.49098278  0.99357560  0.49542593
   0.75102190  0.99252825  0.75886407
   0.00036737  0.76168736  0.24914911
   0.74941934  0.50133196  0.25050443
   0.00310217  0.00221999  0.50315389
   0.49646533  0.50225594  0.50046256
   0.75182056  0.50191807  0.74962417
   0.75132641  0.74804865  0.50174120
HECN                                    
           1
     8.860814    0.004014   -0.007879
     0.009807    8.880765   -0.008432
     0.023969   -0.023624    8.861260
   Zr   V    Ti   N    C    Nb   Ta
     7     6     7    13    19     6     6
Direct configuration=     2
   0.99599398  0.00596258  0.99628394
   0.25187559  0.00563902  0.24902902
   0.24757140  0.49370573  0.24854134
   0.49788320  0.49958702  0.99918367
   0.50188890  0.24651301  0.74614259
   0.00290236  0.50047842  0.49994450
   0.49466341  0.75241770  0.75481849
   0.98147384  0.23113790  0.26973511
   0.77029036  0.73614314  0.99773659
   0.00719599  0.26878376  0.73871998
   0.76424987  0.25929427  0.49312406
   0.00115122  0.72725399  0.75564707
   0.24787223  0.49103176  0.74981397
   0.24604475  0.25242700  0.99328059
   0.51644341  0.25007666  0.25153694
   0.74980104  0.00071580  0.24483881
   0.75481573  0.25857943  0.00026855
   0.23533843  0.74520899  0.99466124
   0.24378083  0.25077508  0.50304360
   0.24596886  0.75014227  0.50369889
   0.24468878  0.24909745  0.24913487
   0.25319336  0.00196718  0.99571477
   0.00117098  0.25291579  0.00078860
   0.75327390  0.24781597  0.25272573
   0.74904109  0.00210170  0.00755392
   0.50836780  0.00669080  0.25179868
   0.99327312  0.49556526  0.24613778
   0.49739709  0.75534179  0.00297392
   0.99770566  0.00755424  0.74560655
   0.76239342  0.25022204  0.75070085
   0.74976191  0.00291311  0.50039590
   0.50293935  0.25014680  0.49270741
   0.50022731  0.99966322  0.75047929
   0.99183862  0.00375436  0.25563134
   0.50217238  0.24624388  0.00531678
   0.24686744  0.75002199  0.24679342
   0.24500541  0.49831371  0.99057906
   0.99851674  0.74663549  0.99654826
   0.75137345  0.75152759  0.24621186
   0.75460788  0.50111941  0.00069835
   0.50587183  0.49527413  0.25470009
   0.24096747  0.25420234  0.74836947
   0.24642516  0.00114747  0.50138338
   0.99886217  0.24699985  0.50294004
   0.23576886  0.74835394  0.75047822
   0.25537336  0.49775670  0.50661976
   0.99949497  0.75628191  0.50524422
   0.00355410  0.49877036  0.75141932
   0.75893224  0.74927110  0.75531115
   0.74659168  0.49512305  0.49902394
   0.49805918  0.74766923  0.49855392
   0.49997838  0.49851706  0.74402173
   0.50927891  0.00849576  0.00503368
   0.00210795  0.49675681  0.99422385
   0.49774959  0.75059684  0.24878007
   0.24676971  0.00482136  0.74533968
   0.49039454  0.99321330  0.49561124
   0.75053382  0.99294195  0.75928603
   0.00027181  0.76201422  0.24923785
   0.74945015  0.50144369  0.25033021
   0.00272701  0.00256706  0.50325632
   0.49646563  0.50267108  0.50040031
   0.75129813  0.50139461  0.74982362
   0.75205265  0.74823065  0.50206572
HECN                                    
           1
     8.860956    0.004481   -0.007796
     0.010275    8.879887   -0.008951
     0.024051   -0.024138    8.860518
   Zr   V    Ti   N    C    Nb   Ta
     7     6     7    13    19     6     6
Direct configuration=     3
   0.99614771  0.00588685  0.99619946
   0.25190751  0.00569247  0.24892226
   0.24733297  0.49373104  0.24864544
   0.49795054  0.49961829  0.99924520
   0.50200321  0.24653572  0.74616880
   0.00276417  0.50041799  0.49965528
   0.49471319  0.75246154  0.75487020
   0.98146125  0.23111955  0.26967090
   0.77027190  0.73633621  0.99749775
   0.00712208  0.26881794  0.73886937
   0.76431829  0.25926977  0.49284957
   0.00139142  0.72719804  0.75564559
   0.24796033  0.49115774  0.74983681
   0.24610009  0.25250416  0.99323289
   0.51641852  0.25009034  0.25155901
   0.74974134  0.00059588  0.24466905
   0.75481146  0.25860126  0.00048922
   0.23537427  0.74516843  0.99477465
   0.24374532  0.25070255  0.50316709
   0.24591781  0.75017001  0.50377348
   0.24459860  0.24915372  0.24916000
   0.25297640  0.00192254  0.99597583
   0.00115154  0.25269871  0.00079575
   0.75329825  0.24779624  0.25271183
   0.74922704  0.00200679  0.00788157
   0.50848882  0.00696845  0.25165566
   0.99321504  0.49558301  0.24625543
   0.49740617  0.75511376  0.00263408
   0.99777055  0.00767785  0.74557842
   0.76240472  0.25041061  0.75069900
   0.75004302  0.00291583  0.50019791
   0.50296579  0.25039493  0.49255544
   0.50013789  0.99967517  0.75044153
   0.99168893  0.00362903  0.25561238
   0.50220466  0.24631312  0.00544926
   0.24664032  0.75008749  0.24682134
   0.24509041  0.49831685  0.99035091
   0.99865184  0.74674658  0.99640154
   0.75155019  0.75157421  0.24618207
   0.75447382  0.50112779  0.00066608
   0.50600652  0.49505790  0.25495736
   0.24083190  0.25439508  0.74845542
   0.24608106  0.00123373  0.50129550
   0.99884503  0.24686914  0.50294016
   0.23560157  0.74808884  0.75049423
   0.25562891  0.49774568  0.50672859
   0.99970922  0.75641709  0.50526725
   0.00368861  0.49865585  0.75145381
   0.75906969  0.74887026  0.75531207
   0.74640176  0.49523047  0.49898226
   0.49796900  0.74734999  0.49868952
   0.49987948  0.49848980  0.74387023
   0.50915407  0.00855964  0.00510859
   0.00218352  0.49679976  0.99420409
   0.49781195  0.75054379  0.24884262
   0.24689150  0.00476058  0.74530074
   0.49022219  0.99310714  0.49566554
   0.75039078  0.99306327  0.75940974
   0.00024379  0.76211004  0.24926389
   0.74945917  0.50147643  0.25027915
   0.00261706  0.00266882  0.50328637
   0.49646569  0.50279277  0.50038208
   0.75114508  0.50124121  0.74988206
   0.75226543  0.74828398  0.50216084
HECN                                    
           1
     8.861351    0.004523   -0.007078
     0.010314    8.885939   -0.009267
     0.024774   -0.024467    8.864412
   Zr   V    Ti   N    C    Nb   Ta
     7     6     7    13    19     6     6
Direct configuration=     4
   0.99643427  0.00561686  0.99593410
   0.25196763  0.00582072  0.24911883
   0.24757584  0.49382893  0.24858016
   0.49776030  0.49971348  0.99970089
   0.50209922  0.24627639  0.74595845
   0.00276029  0.50005843  0.50005171
   0.49474652  0.75259667  0.75466849
   0.98150186  0.23084272  0.26923264
   0.77040590  0.73701900  0.99648581
   0.00688305  0.26898828  0.73939394
   0.76437389  0.25907991  0.49171642
   0.00208788  0.72637261  0.75553573
   0.24809186  0.49170274  0.74976992
   0.24613442  0.25272545  0.99312561
   0.51639112  0.25027088  0.25182030
   0.74953500  0.00021685  0.24413730
   0.75491872  0.25834604  0.00144145
   0.23562637  0.74497119  0.99507593
   0.24355487  0.25066487  0.50355589
   0.24564837  0.75025487  0.50382853
   0.24420153  0.24935976  0.24925469
   0.25284328  0.00187351  0.99606978
   0.00115112  0.25276002  0.00082759
   0.75332021  0.24779547  0.25253071
   0.74918993  0.00157259  0.00824593
   0.50853090  0.00735702  0.25171576
   0.99311633  0.49554762  0.24616006
   0.49740915  0.75484516  0.00259031
   0.99775686  0.00803143  0.74553934
   0.76231651  0.25055580  0.75073194
   0.75031284  0.00289401  0.49987308
   0.50298298  0.25055798  0.49249055
   0.49987342  0.99973110  0.75025674
   0.99157189  0.00370103  0.25547115
   0.50223035  0.24638589  0.00564484
   0.24650468  0.75011891  0.24691532
   0.24524496  0.49832049  0.99032104
   0.99889343  0.74670744  0.99611745
   0.75153697  0.75159975  0.24617681
   0.75464786  0.50122330  0.00055136
   0.50571930  0.49476815  0.25496232
   0.24080451  0.25446810  0.74864472
   0.24590117  0.00138659  0.50130784
   0.99880990  0.24712807  0.50305356
   0.23564065  0.74759230  0.75059490
   0.25512079  0.49769264  0.50690641
   0.00006183  0.75629771  0.50537884
   0.00369635  0.49857669  0.75099044
   0.75943695  0.74864976  0.75518796
   0.74646905  0.49543614  0.49897326
   0.49796373  0.74742855  0.49873027
   0.49975648  0.49847477  0.74417833
   0.50905741  0.00834841  0.00501689
   0.00199729  0.49684257  0.99423664
   0.49803421  0.75070026  0.24893794
   0.24758144  0.00466133  0.74530507
   0.48975509  0.99275435  0.49550775
   0.74976781  0.99336153  0.76013652
   0.00025153  0.76220997  0.24909394
   0.74950242  0.50174784  0.25012509
   0.00207629  0.00295414  0.50340559
   0.49650762  0.50282386  0.50011280
   0.75126786  0.50064730  0.74979067
   0.75268812  0.74874351  0.50280584
HECN                                    
           1
     8.861587    0.004549   -0.006647
     0.010337    8.889566   -0.009457
     0.025207   -0.024664    8.866745
   Zr   V    Ti   N    C    Nb   Ta
     7     6     7    13    19     6     6
Direct configuration=     5
   0.99660597  0.00545519  0.99577515
   0.25200364  0.00589752  0.24923655
   0.24772135  0.49388755  0.24854105
   0.49764630  0.49977050  0.99997381
   0.50215676  0.24612110  0.74583247
   0.00275794  0.49984315  0.50028914
   0.49476650  0.75267757  0.75454768
   0.98152622  0.23067696  0.26897015
   0.77048624  0.73742780  0.99587974
   0.00673981  0.26909028  0.73970813
   0.76440726  0.25896621  0.49103776
   0.00250518  0.72587836  0.75546988
   0.24817067  0.49202906  0.74972986
   0.24615499  0.25285795  0.99306137
   0.51637468  0.25037899  0.25197679
   0.74941140  0.99998988  0.24381882
   0.75498294  0.25819325  0.00201175
   0.23577740  0.74485310  0.99525636
   0.24344074  0.25064232  0.50378875
   0.24548693  0.75030569  0.50386152
   0.24396362  0.24948314  0.24931143
   0.25276352  0.00184415  0.99612605
   0.00115087  0.25279673  0.00084667
   0.75333337  0.24779500  0.25242224
   0.74916767  0.00131262  0.00846415
   0.50855611  0.00758969  0.25175177
   0.99305720  0.49552644  0.24610294
   0.49741094  0.75468433  0.00256409
   0.99774865  0.00824315  0.74551594
   0.76226366  0.25064273  0.75075167
   0.75047453  0.00288093  0.49967852
   0.50299328  0.25065560  0.49245168
   0.49971496  0.99976458  0.75014608
   0.99150178  0.00374414  0.25538658
   0.50224573  0.24642946  0.00576198
   0.24642341  0.75013772  0.24697162
   0.24533757  0.49832268  0.99030314
   0.99903819  0.74668400  0.99594729
   0.75152905  0.75161504  0.24617365
   0.75475215  0.50128049  0.00048265
   0.50554721  0.49459466  0.25496530
   0.24078809  0.25451182  0.74875810
   0.24579339  0.00147813  0.50131524
   0.99878885  0.24728311  0.50312148
   0.23566406  0.74729498  0.75065518
   0.25481634  0.49766089  0.50701293
   0.00027309  0.75622624  0.50544566
   0.00370100  0.49852927  0.75071292
   0.75965700  0.74851772  0.75511360
   0.74650936  0.49555928  0.49896788
   0.49796057  0.74747560  0.49875468
   0.49968277  0.49846578  0.74436286
   0.50899950  0.00822193  0.00496197
   0.00188571  0.49686821  0.99425615
   0.49816737  0.75079395  0.24899502
   0.24799483  0.00460191  0.74530762
   0.48947523  0.99254311  0.49541327
   0.74939452  0.99354015  0.76057184
   0.00025618  0.76226981  0.24899216
   0.74952834  0.50191034  0.25003283
   0.00175228  0.00312499  0.50347702
   0.49653275  0.50284247  0.49995152
   0.75134144  0.50029168  0.74973592
   0.75294134  0.74901868  0.50319213
HECN                                    
           1
     8.857337    0.004485   -0.006488
     0.010271    8.884250   -0.009451
     0.025351   -0.024649    8.862224
   Zr   V    Ti   N    C    Nb   Ta
     7     6     7    13    19     6     6
Direct configuration=     6
   0.99675955  0.00536809  0.99557803
   0.25196514  0.00599645  0.24936871
   0.24767506  0.49392508  0.24864085
   0.49778078  0.49979947  0.99999483
   0.50221556  0.24613362  0.74575922
   0.00268780  0.49976775  0.50016338
   0.49478194  0.75260040  0.75448462
   0.98162914  0.23050052  0.26864392
   0.77063782  0.73789696  0.99496769
   0.00661281  0.26916041  0.74021731
   0.76443284  0.25880438  0.49003929
   0.00297984  0.72513647  0.75537170
   0.24822637  0.49236557  0.74966332
   0.24609346  0.25298954  0.99297267
   0.51634621  0.25052497  0.25216873
   0.74929257  0.99970593  0.24341532
   0.75508969  0.25797876  0.00282446
   0.23597786  0.74470520  0.99540876
   0.24322275  0.25070075  0.50405479
   0.24524829  0.75032469  0.50384519
   0.24363999  0.24954302  0.24937197
   0.25281886  0.00186183  0.99606278
   0.00115873  0.25287800  0.00087906
   0.75332600  0.24781998  0.25221734
   0.74915835  0.00095209  0.00851629
   0.50851521  0.00769410  0.25183772
   0.99303710  0.49556435  0.24596492
   0.49739759  0.75466215  0.00267392
   0.99766405  0.00852882  0.74548046
   0.76217588  0.25058908  0.75079839
   0.75045085  0.00284586  0.49960976
   0.50297675  0.25064939  0.49248774
   0.49957680  0.99970673  0.75002816
   0.99150825  0.00376719  0.25526799
   0.50221711  0.24631222  0.00579435
   0.24643891  0.75020283  0.24701662
   0.24527892  0.49830639  0.99044736
   0.99918131  0.74660467  0.99582379
   0.75150520  0.75159038  0.24621822
   0.75479859  0.50135802  0.00041145
   0.50543045  0.49458109  0.25493377
   0.24082375  0.25443824  0.74886691
   0.24569963  0.00154018  0.50144965
   0.99870224  0.24733901  0.50316580
   0.23585915  0.74710256  0.75072389
   0.25469936  0.49763812  0.50703858
   0.00037034  0.75612527  0.50548018
   0.00367232  0.49848093  0.75078070
   0.75991950  0.74855493  0.75498628
   0.74656524  0.49567349  0.49890981
   0.49805095  0.74760923  0.49866796
   0.49968647  0.49842421  0.74453381
   0.50887504  0.00807605  0.00487425
   0.00183531  0.49686477  0.99422382
   0.49826274  0.75093506  0.24909908
   0.24847521  0.00450837  0.74528960
   0.48931840  0.99240932  0.49528052
   0.74887762  0.99383676  0.76114876
   0.00023907  0.76227464  0.24894582
   0.74957447  0.50223057  0.25005551
   0.00152128  0.00336164  0.50360918
   0.49649512  0.50290396  0.49998131
   0.75131045  0.49996132  0.74969026
   0.75325629  0.74930793  0.50377366
HECN                                    
           1
     8.854178    0.004438   -0.006370
     0.010222    8.880298   -0.009447
     0.025459   -0.024638    8.858862
   Zr   V    Ti   N    C    Nb   Ta
     7     6     7    13    19     6     6
Direct configuration=     7
   0.99687381  0.00530328  0.99543139
   0.25193650  0.00607006  0.24946702
   0.24764063  0.49395300  0.24871509
   0.49788083  0.49982103  0.00001046
   0.50225931  0.24614293  0.74570473
   0.00263563  0.49971166  0.50006981
   0.49479344  0.75254298  0.75443771
   0.98170571  0.23036926  0.26840122
   0.77075060  0.73824601  0.99428917
   0.00651833  0.26921258  0.74059612
   0.76445188  0.25868398  0.48929649
   0.00333294  0.72458450  0.75529865
   0.24826781  0.49261593  0.74961382
   0.24604769  0.25308744  0.99290668
   0.51632503  0.25063358  0.25231152
   0.74920418  0.99949466  0.24311513
   0.75516910  0.25781918  0.00342907
   0.23612699  0.74459517  0.99552213
   0.24306059  0.25074422  0.50425271
   0.24507076  0.75033883  0.50383304
   0.24339924  0.24958757  0.24941702
   0.25286002  0.00187498  0.99601571
   0.00116457  0.25293847  0.00090316
   0.75332051  0.24783856  0.25206491
   0.74915142  0.00068386  0.00855509
   0.50848479  0.00777177  0.25190166
   0.99302215  0.49559257  0.24586225
   0.49738766  0.75464564  0.00275563
   0.99760112  0.00874136  0.74545407
   0.76211059  0.25054916  0.75083314
   0.75043324  0.00281977  0.49955860
   0.50296446  0.25064478  0.49251456
   0.49947401  0.99966368  0.74994043
   0.99151307  0.00378433  0.25517977
   0.50219582  0.24622499  0.00581844
   0.24645044  0.75025128  0.24705009
   0.24523530  0.49829428  0.99055466
   0.99928778  0.74654565  0.99573191
   0.75148745  0.75157204  0.24625138
   0.75483314  0.50141571  0.00035849
   0.50534358  0.49457100  0.25491032
   0.24085028  0.25438349  0.74894786
   0.24562988  0.00158635  0.50154964
   0.99863781  0.24738060  0.50319878
   0.23600428  0.74695939  0.75077500
   0.25461234  0.49762117  0.50705765
   0.00044268  0.75605015  0.50550586
   0.00365098  0.49844497  0.75083111
   0.76011478  0.74858260  0.75489156
   0.74660681  0.49575846  0.49886661
   0.49811818  0.74770866  0.49860344
   0.49968922  0.49839328  0.74466099
   0.50878246  0.00796751  0.00480899
   0.00179781  0.49686220  0.99419977
   0.49833369  0.75104004  0.24917649
   0.24883258  0.00443878  0.74527618
   0.48920174  0.99230978  0.49518177
   0.74849308  0.99405744  0.76157795
   0.00022635  0.76227823  0.24891134
   0.74960879  0.50246882  0.25007238
   0.00134944  0.00353770  0.50370750
   0.49646712  0.50294971  0.50000348
   0.75128740  0.49971554  0.74965629
   0.75349057  0.74952313  0.50420628
HECN                                    
           1
     8.859426    0.004240   -0.006504
     0.010029    8.881465   -0.009131
     0.025342   -0.024323    8.862108
   Zr   V    Ti   N    C    Nb   Ta
     7     6     7    13    19     6     6
Direct configuration=     8
   0.99703547  0.00529283  0.99523492
   0.25182285  0.00611988  0.24951988
   0.24744450  0.49397356  0.24892652
   0.49815567  0.49979659  0.99985330
   0.50231937  0.24628515  0.74574068
   0.00247676  0.49972767  0.49965011
   0.49484305  0.75231648  0.75447402
   0.98193043  0.23030033  0.26800527
   0.77089080  0.73872790  0.99319066
   0.00647745  0.26911707  0.74128971
   0.76443035  0.25845651  0.48810724
   0.00369898  0.72397221  0.75520532
   0.24829020  0.49285180  0.74955345
   0.24590933  0.25315825  0.99281233
   0.51624738  0.25077477  0.25246442
   0.74915064  0.99922676  0.24274082
   0.75528379  0.25759082  0.00438319
   0.23633895  0.74449110  0.99560544
   0.24279193  0.25085135  0.50447094
   0.24487674  0.75031718  0.50377086
   0.24303885  0.24957162  0.24946116
   0.25303477  0.00194576  0.99589932
   0.00118665  0.25297257  0.00095690
   0.75327522  0.24786292  0.25175773
   0.74924320  0.00028145  0.00845629
   0.50841215  0.00772341  0.25193551
   0.99304477  0.49571397  0.24569527
   0.49735637  0.75476507  0.00290503
   0.99745878  0.00907960  0.74541358
   0.76202666  0.25033414  0.75090017
   0.75019443  0.00284619  0.49966947
   0.50293008  0.25055767  0.49256976
   0.49940666  0.99953324  0.74987604
   0.99154686  0.00374039  0.25507178
   0.50211162  0.24603225  0.00578649
   0.24652290  0.75035608  0.24706126
   0.24515923  0.49825350  0.99079372
   0.99943086  0.74649217  0.99566127
   0.75150541  0.75157568  0.24630959
   0.75479163  0.50147923  0.00032258
   0.50537523  0.49475117  0.25490335
   0.24089031  0.25426928  0.74902121
   0.24551876  0.00160827  0.50172958
   0.99844862  0.24731914  0.50318957
   0.23628806  0.74690267  0.75081452
   0.25478714  0.49763859  0.50702470
   0.00042117  0.75603191  0.50551340
   0.00364702  0.49831022  0.75108186
   0.76037594  0.74872610  0.75478088
   0.74658337  0.49578099  0.49877596
   0.49826585  0.74781550  0.49848920
   0.49975426  0.49834096  0.74468119
   0.50853119  0.00781186  0.00476956
   0.00181038  0.49681957  0.99423235
   0.49831665  0.75111395  0.24931015
   0.24918637  0.00427930  0.74527383
   0.48927237  0.99241881  0.49512862
   0.74798343  0.99450151  0.76204670
   0.00019138  0.76221370  0.24895976
   0.74957675  0.50287624  0.25020065
   0.00130935  0.00371608  0.50389199
   0.49643423  0.50303881  0.50018543
   0.75116916  0.49948766  0.74960636
   0.75377166  0.74976237  0.50488730
HECN                                    
           1
     8.862682    0.004117   -0.006587
     0.009909    8.882189   -0.008935
     0.025270   -0.024127    8.864121
   Zr   V    Ti   N    C    Nb   Ta
     7     6     7    13    19     6     6
Direct configuration=     9
   0.99713570  0.00528635  0.99511309
   0.25175240  0.00615078  0.24955266
   0.24732291  0.49398631  0.24905763
   0.49832607  0.49978144  0.99975585
   0.50235661  0.24637336  0.74576296
   0.00237826  0.49973761  0.49938984
   0.49487381  0.75217599  0.75449655
   0.98206975  0.23025760  0.26775974
   0.77097771  0.73902683  0.99250945
   0.00645211  0.26905781  0.74171983
   0.76441700  0.25831545  0.48736978
   0.00392591  0.72359244  0.75514746
   0.24830407  0.49299811  0.74951601
   0.24582355  0.25320217  0.99275382
   0.51619925  0.25086234  0.25255924
   0.74911744  0.99906060  0.24250872
   0.75535491  0.25744916  0.00497485
   0.23647037  0.74442654  0.99565711
   0.24262537  0.25091778  0.50460626
   0.24475645  0.75030376  0.50373229
   0.24281541  0.24956171  0.24948853
   0.25314310  0.00198967  0.99582715
   0.00120033  0.25299371  0.00099023
   0.75324713  0.24787804  0.25156724
   0.74930009  0.00003186  0.00839503
   0.50836712  0.00769341  0.25195650
   0.99305879  0.49578927  0.24559172
   0.49733697  0.75483913  0.00299767
   0.99737054  0.00928940  0.74538846
   0.76197462  0.25020076  0.75094173
   0.75004637  0.00286258  0.49973822
   0.50290876  0.25050365  0.49260400
   0.49936490  0.99945233  0.74983611
   0.99156781  0.00371314  0.25500481
   0.50205941  0.24591270  0.00576668
   0.24656782  0.75042108  0.24706818
   0.24511206  0.49822821  0.99094196
   0.99951957  0.74645899  0.99561747
   0.75151654  0.75157793  0.24634569
   0.75476590  0.50151864  0.00030032
   0.50539486  0.49486292  0.25489903
   0.24091513  0.25419843  0.74906670
   0.24544987  0.00162187  0.50184116
   0.99833133  0.24728102  0.50318386
   0.23646399  0.74686749  0.75083903
   0.25489551  0.49764940  0.50700427
   0.00040784  0.75602060  0.50551808
   0.00364457  0.49822664  0.75123735
   0.76053786  0.74881510  0.75471224
   0.74656883  0.49579496  0.49871975
   0.49835740  0.74788177  0.49841836
   0.49979458  0.49830850  0.74469371
   0.50837541  0.00771531  0.00474512
   0.00181818  0.49679312  0.99425256
   0.49830608  0.75115979  0.24939304
   0.24940571  0.00418038  0.74527237
   0.48931615  0.99248643  0.49509567
   0.74766748  0.99477694  0.76233737
   0.00016970  0.76217368  0.24898978
   0.74955690  0.50312893  0.25028019
   0.00128451  0.00382671  0.50400639
   0.49641384  0.50309407  0.50029826
   0.75109586  0.49934631  0.74957540
   0.75394593  0.74991075  0.50530961
HECN                                    
           1
     8.863826    0.004074   -0.006617
     0.009867    8.882444   -0.008866
     0.025244   -0.024058    8.864828
   Zr   V    Ti   N    C    Nb   Ta
     7     6     7    13    19     6     6
Direct configuration=    10
   0.99717090  0.00528407  0.99507030
   0.25172765  0.00616164  0.24956418
   0.24728020  0.49399079  0.24910368
   0.49838592  0.49977612  0.99972162
   0.50236969  0.24640435  0.74577079
   0.00234367  0.49974110  0.49929842
   0.49488461  0.75212664  0.75450446
   0.98211868  0.23024259  0.26767349
   0.77100824  0.73913185  0.99227016
   0.00644321  0.26903698  0.74187091
   0.76441230  0.25826589  0.48711074
   0.00400561  0.72345902  0.75512714
   0.24830895  0.49304951  0.74950286
   0.24579342  0.25321760  0.99273326
   0.51618234  0.25089311  0.25259254
   0.74910577  0.99900223  0.24242718
   0.75537988  0.25739939  0.00518269
   0.23651652  0.74440386  0.99567525
   0.24256688  0.25094112  0.50465380
   0.24471420  0.75029904  0.50371874
   0.24273694  0.24955823  0.24949815
   0.25318115  0.00200509  0.99580180
   0.00120514  0.25300114  0.00100194
   0.75323727  0.24788335  0.25150033
   0.74932007  0.99994417  0.00837352
   0.50835130  0.00768287  0.25196388
   0.99306371  0.49581573  0.24555534
   0.49733016  0.75486516  0.00303021
   0.99733955  0.00936310  0.74537963
   0.76195635  0.25015391  0.75095634
   0.74999437  0.00286834  0.49976237
   0.50290128  0.25048467  0.49261602
   0.49935023  0.99942390  0.74982208
   0.99157517  0.00370357  0.25498129
   0.50204107  0.24587070  0.00575972
   0.24658360  0.75044392  0.24707061
   0.24509550  0.49821932  0.99099404
   0.99955072  0.74644734  0.99560209
   0.75152045  0.75157872  0.24635837
   0.75475686  0.50153248  0.00029249
   0.50540175  0.49490218  0.25489751
   0.24092385  0.25417354  0.74908268
   0.24542567  0.00162664  0.50188035
   0.99829013  0.24726763  0.50318185
   0.23652578  0.74685513  0.75084764
   0.25493357  0.49765320  0.50699709
   0.00040315  0.75601662  0.50551973
   0.00364370  0.49819727  0.75129197
   0.76059473  0.74884637  0.75468814
   0.74656372  0.49579987  0.49870000
   0.49838956  0.74790505  0.49839347
   0.49980875  0.49829710  0.74469811
   0.50832070  0.00768139  0.00473653
   0.00182091  0.49678383  0.99425966
   0.49830237  0.75117589  0.24942215
   0.24948275  0.00414563  0.74527186
   0.48933153  0.99251019  0.49508409
   0.74755651  0.99487369  0.76243947
   0.00016208  0.76215961  0.24900033
   0.74954993  0.50321771  0.25030812
   0.00127578  0.00386558  0.50404658
   0.49640668  0.50311348  0.50033789
   0.75107011  0.49929666  0.74956453
   0.75400715  0.74996288  0.50545796
HECN                                    
           1
     8.862025    0.003597   -0.006786
     0.009388    8.881552   -0.008242
     0.025071   -0.023434    8.864671
   Zr   V    Ti   N    C    Nb   Ta
     7     6     7    13    19     6     6
Direct configuration=    11
   0.99731975  0.00523608  0.99495891
   0.25164168  0.00612417  0.24959646
   0.24741711  0.49400494  0.24914885
   0.49833096  0.49969421  0.99982608
   0.50234878  0.24633075  0.74584909
   0.00225480  0.49956374  0.49936719
   0.49499735  0.75206181  0.75450903
   0.98230981  0.23015000  0.26734108
   0.77119558  0.73943005  0.99138570
   0.00661755  0.26883913  0.74242161
   0.76443879  0.25802670  0.48603432
   0.00410091  0.72330688  0.75512612
   0.24826793  0.49305347  0.74949800
   0.24566752  0.25325496  0.99261511
   0.51610493  0.25096616  0.25260773
   0.74916602  0.99885151  0.24220098
   0.75544189  0.25729087  0.00599086
   0.23654816  0.74434520  0.99566806
   0.24232267  0.25096411  0.50479599
   0.24474735  0.75030850  0.50371065
   0.24245773  0.24955084  0.24952144
   0.25329030  0.00209589  0.99580554
   0.00122774  0.25293217  0.00106461
   0.75316533  0.24791472  0.25119144
   0.74945504  0.99968718  0.00828631
   0.50828665  0.00758046  0.25188727
   0.99305088  0.49602750  0.24549823
   0.49727895  0.75492536  0.00304546
   0.99725187  0.00966982  0.74535382
   0.76184844  0.24997068  0.75106515
   0.74977805  0.00299430  0.49996880
   0.50287631  0.25045104  0.49263696
   0.49933962  0.99937103  0.74987977
   0.99155270  0.00362640  0.25498810
   0.50196507  0.24581608  0.00576736
   0.24656207  0.75048262  0.24704372
   0.24524294  0.49816534  0.99117049
   0.99964664  0.74649523  0.99556940
   0.75158866  0.75164219  0.24641685
   0.75478791  0.50154624  0.00030660
   0.50546359  0.49512947  0.25492432
   0.24092213  0.25413401  0.74909900
   0.24538686  0.00164154  0.50189946
   0.99801229  0.24726201  0.50311038
   0.23667435  0.74687766  0.75083856
   0.25499031  0.49769637  0.50698718
   0.00033827  0.75611248  0.50549080
   0.00365070  0.49797977  0.75111863
   0.76072649  0.74890768  0.75464977
   0.74647351  0.49569194  0.49867714
   0.49853022  0.74794002  0.49844360
   0.49991117  0.49828138  0.74460623
   0.50815287  0.00763065  0.00485578
   0.00176615  0.49677224  0.99439554
   0.49821241  0.75106464  0.24954020
   0.24954233  0.00401300  0.74524811
   0.48935880  0.99275917  0.49513512
   0.74734516  0.99524707  0.76248481
   0.00015455  0.76221222  0.24904728
   0.74934448  0.50354919  0.25035118
   0.00137317  0.00387084  0.50415791
   0.49650139  0.50316208  0.50032161
   0.75118006  0.49917859  0.74950493
   0.75409666  0.75013743  0.50599344
HECN                                    
           1
     8.860772    0.003265   -0.006903
     0.009055    8.880932   -0.007807
     0.024950   -0.023000    8.864562
   Zr   V    Ti   N    C    Nb   Ta