  64  64   0   0
  0.1105447E+02  0.8870674E-09  0.8982582E-09  0.8878933E-09  0.5000000E-15
  1.000000000000000E-004
  CAR 
 HECN                                    
     13.52113540    -60.72019573  301      7.56518890      1.00000000
    -60.720  0.0000E+00  0.0000E+00
    -60.473  0.0000E+00  0.0000E+00
    -60.225  0.0000E+00  0.0000E+00
    -59.978  0.0000E+00  0.0000E+00
    -59.730  0.0000E+00  0.0000E+00
    -59.483  0.0000E+00  0.0000E+00
    -59.235  0.0000E+00  0.0000E+00
    -58.988  0.0000E+00  0.0000E+00
    -58.740  0.0000E+00  0.0000E+00
    -58.493  0.0000E+00  0.0000E+00
    -58.245  0.0000E+00  0.0000E+00
    -57.998  0.0000E+00  0.0000E+00
    -57.751  0.6707E-09  0.1660E-09
    -57.503  0.2089E-02  0.5169E-03
    -57.256  0.2570E+00  0.6412E-01
    -57.008  0.2242E+00  0.1196E+00
    -56.761  0.1590E-02  0.1200E+00
    -56.513  0.6319E-09  0.1200E+00
    -56.266  0.0000E+00  0.1200E+00
    -56.018  0.0000E+00  0.1200E+00
    -55.771  0.0000E+00  0.1200E+00
    -55.523  0.0000E+00  0.1200E+00
    -55.276  0.0000E+00  0.1200E+00
    -55.028  0.0000E+00  0.1200E+00
    -54.781  0.0000E+00  0.1200E+00
    -54.533  0.0000E+00  0.1200E+00
    -54.286  0.0000E+00  0.1200E+00
    -54.038  0.0000E+00  0.1200E+00
    -53.791  0.0000E+00  0.1200E+00
    -53.544  0.0000E+00  0.1200E+00
    -53.296  0.0000E+00  0.1200E+00
    -53.049  0.0000E+00  0.1200E+00
    -52.801  0.0000E+00  0.1200E+00
    -52.554  0.0000E+00  0.1200E+00
    -52.306  0.0000E+00  0.1200E+00
    -52.059  0.0000E+00  0.1200E+00
    -51.811  0.0000E+00  0.1200E+00
    -51.564  0.0000E+00  0.1200E+00
    -51.316  0.0000E+00  0.1200E+00
    -51.069  0.0000E+00  0.1200E+00
    -50.821  0.0000E+00  0.1200E+00
    -50.574  0.3605E-12  0.1200E+00
    -50.326  0.3632E-04  0.1200E+00
    -50.079  0.5998E-01  0.1349E+00
    -49.831  0.1646E+00  0.1756E+00
    -49.584  0.3246E+00  0.2559E+00
    -49.337  0.1650E-01  0.2600E+00
    -49.089  0.2298E-06  0.2600E+00
    -48.842  0.0000E+00  0.2600E+00
    -48.594  0.0000E+00  0.2600E+00
    -48.347  0.0000E+00  0.2600E+00
    -48.099  0.0000E+00  0.2600E+00
    -47.852  0.0000E+00  0.2600E+00
    -47.604  0.0000E+00  0.2600E+00
    -47.357  0.0000E+00  0.2600E+00
    -47.109  0.0000E+00  0.2600E+00
    -46.862  0.0000E+00  0.2600E+00
    -46.614  0.0000E+00  0.2600E+00
    -46.367  0.0000E+00  0.2600E+00
    -46.119  0.0000E+00  0.2600E+00
    -45.872  0.0000E+00  0.2600E+00
    -45.624  0.0000E+00  0.2600E+00
    -45.377  0.0000E+00  0.2600E+00
    -45.130  0.0000E+00  0.2600E+00
    -44.882  0.0000E+00  0.2600E+00
    -44.635  0.0000E+00  0.2600E+00
    -44.387  0.0000E+00  0.2600E+00
    -44.140  0.0000E+00  0.2600E+00
    -43.892  0.0000E+00  0.2600E+00
    -43.645  0.0000E+00  0.2600E+00
    -43.397  0.0000E+00  0.2600E+00
    -43.150  0.0000E+00  0.2600E+00
    -42.902  0.0000E+00  0.2600E+00
    -42.655  0.0000E+00  0.2600E+00
    -42.407  0.0000E+00  0.2600E+00
    -42.160  0.8851E-09  0.2600E+00
    -41.912  0.1903E-02  0.2605E+00
    -41.665  0.1405E+00  0.2953E+00
    -41.417  0.8457E-01  0.3162E+00
    -41.170  0.1351E+00  0.3496E+00
    -40.923  0.8942E-01  0.3718E+00
    -40.675  0.3613E-01  0.3807E+00
    -40.428  0.7430E-01  0.3991E+00
    -40.180  0.3701E-02  0.4000E+00
    -39.933  0.8643E-08  0.4000E+00
    -39.685  0.0000E+00  0.4000E+00
    -39.438  0.0000E+00  0.4000E+00
    -39.190  0.0000E+00  0.4000E+00
    -38.943  0.0000E+00  0.4000E+00
    -38.695  0.0000E+00  0.4000E+00
    -38.448  0.0000E+00  0.4000E+00
    -38.200  0.0000E+00  0.4000E+00
    -37.953  0.0000E+00  0.4000E+00
    -37.705  0.0000E+00  0.4000E+00
    -37.458  0.0000E+00  0.4000E+00
    -37.210  0.0000E+00  0.4000E+00
    -36.963  0.0000E+00  0.4000E+00
    -36.715  0.0000E+00  0.4000E+00
    -36.468  0.0000E+00  0.4000E+00
    -36.221  0.0000E+00  0.4000E+00
    -35.973  0.0000E+00  0.4000E+00
    -35.726  0.0000E+00  0.4000E+00
    -35.478  0.0000E+00  0.4000E+00
    -35.231  0.0000E+00  0.4000E+00
    -34.983  0.0000E+00  0.4000E+00
    -34.736  0.0000E+00  0.4000E+00
    -34.488  0.0000E+00  0.4000E+00
    -34.241  0.0000E+00  0.4000E+00
    -33.993  0.0000E+00  0.4000E+00
    -33.746  0.0000E+00  0.4000E+00
    -33.498  0.0000E+00  0.4000E+00
    -33.251  0.0000E+00  0.4000E+00
    -33.003  0.0000E+00  0.4000E+00
    -32.756  0.0000E+00  0.4000E+00
    -32.508  0.0000E+00  0.4000E+00
    -32.261  0.0000E+00  0.4000E+00
    -32.014  0.0000E+00  0.4000E+00
    -31.766  0.3753E-09  0.4000E+00
    -31.519  0.1771E-02  0.4004E+00
    -31.271  0.4567E+00  0.5135E+00
    -31.024  0.9179E+00  0.7406E+00
    -30.776  0.7839E-01  0.7600E+00
    -30.529  0.4389E-05  0.7600E+00
    -30.281  0.3830E-14  0.7600E+00
    -30.034  0.0000E+00  0.7600E+00
    -29.786  0.0000E+00  0.7600E+00
    -29.539  0.0000E+00  0.7600E+00
    -29.291  0.0000E+00  0.7600E+00
    -29.044  0.0000E+00  0.7600E+00
    -28.796  0.0000E+00  0.7600E+00
    -28.549  0.9831E-14  0.7600E+00
    -28.301  0.5373E-05  0.7600E+00
    -28.054  0.3892E-01  0.7696E+00
    -27.807  0.3762E+00  0.8627E+00
    -27.559  0.5078E+00  0.9884E+00
    -27.312  0.3970E+00  0.1087E+01
    -27.064  0.1345E+00  0.1120E+01
    -26.817  0.2834E-03  0.1120E+01
    -26.569  0.2044E-01  0.1125E+01
    -26.322  0.4203E+00  0.1229E+01
    -26.074  0.8035E+00  0.1428E+01
    -25.827  0.4489E+00  0.1539E+01
    -25.579  0.3998E-02  0.1540E+01
    -25.332  0.7295E-08  0.1540E+01
    -25.084  0.0000E+00  0.1540E+01
    -24.837  0.0000E+00  0.1540E+01
    -24.589  0.0000E+00  0.1540E+01
    -24.342  0.0000E+00  0.1540E+01
    -24.094  0.1639E-13  0.1540E+01
    -23.847  0.7030E-05  0.1540E+01
    -23.600  0.3402E-01  0.1548E+01
    -23.352  0.3521E+00  0.1636E+01
    -23.105  0.3612E+00  0.1725E+01
    -22.857  0.3685E+00  0.1816E+01
    -22.610  0.3344E+00  0.1899E+01
    -22.362  0.4413E-02  0.1900E+01
    -22.115  0.4784E-08  0.1900E+01
    -21.867  0.0000E+00  0.1900E+01
    -21.620  0.0000E+00  0.1900E+01
    -21.372  0.0000E+00  0.1900E+01
    -21.125  0.0000E+00  0.1900E+01
    -20.877  0.0000E+00  0.1900E+01
    -20.630  0.2051E-08  0.1900E+01
    -20.382  0.2480E-02  0.1901E+01
    -20.135  0.1874E+00  0.1947E+01
    -19.887  0.3343E+00  0.2030E+01
    -19.640  0.2249E+00  0.2085E+01
    -19.393  0.4503E+00  0.2197E+01
    -19.145  0.2377E+00  0.2256E+01
    -18.898  0.1029E+00  0.2281E+01
    -18.650  0.1566E+00  0.2320E+01
    -18.403  0.5804E-03  0.2320E+01
    -18.155  0.5870E-10  0.2320E+01
    -17.908  0.0000E+00  0.2320E+01
    -17.660  0.0000E+00  0.2320E+01
    -17.413  0.0000E+00  0.2320E+01
    -17.165  0.0000E+00  0.2320E+01
    -16.918  0.0000E+00  0.2320E+01
    -16.670  0.0000E+00  0.2320E+01
    -16.423  0.0000E+00  0.2320E+01
    -16.175  0.0000E+00  0.2320E+01
    -15.928  0.0000E+00  0.2320E+01
    -15.680  0.0000E+00  0.2320E+01
    -15.433  0.0000E+00  0.2320E+01
    -15.186  0.0000E+00  0.2320E+01
    -14.938  0.0000E+00  0.2320E+01
    -14.691  0.0000E+00  0.2320E+01
    -14.443  0.0000E+00  0.2320E+01
    -14.196  0.0000E+00  0.2320E+01
    -13.948  0.0000E+00  0.2320E+01
    -13.701  0.0000E+00  0.2320E+01
    -13.453  0.0000E+00  0.2320E+01
    -13.206  0.0000E+00  0.2320E+01
    -12.958  0.0000E+00  0.2320E+01
    -12.711  0.0000E+00  0.2320E+01
    -12.463  0.0000E+00  0.2320E+01
    -12.216  0.0000E+00  0.2320E+01
    -11.968  0.0000E+00  0.2320E+01
    -11.721  0.0000E+00  0.2320E+01
    -11.473  0.0000E+00  0.2320E+01
    -11.226  0.0000E+00  0.2320E+01
    -10.979  0.0000E+00  0.2320E+01
    -10.731  0.0000E+00  0.2320E+01
    -10.484  0.0000E+00  0.2320E+01
    -10.236  0.0000E+00  0.2320E+01
     -9.989  0.0000E+00  0.2320E+01
     -9.741  0.0000E+00  0.2320E+01
     -9.494  0.0000E+00  0.2320E+01
     -9.246  0.0000E+00  0.2320E+01
     -8.999  0.1719E-09  0.2320E+01
     -8.751  0.1840E-03  0.2320E+01
     -8.504  0.2102E-01  0.2325E+01
     -8.256  0.5510E-01  0.2339E+01
     -8.009  0.4775E-01  0.2351E+01
     -7.761  0.1467E+00  0.2387E+01
     -7.514  0.2470E+00  0.2448E+01
     -7.266  0.2394E+00  0.2507E+01
     -7.019  0.1575E+00  0.2546E+01
     -6.771  0.1001E+00  0.2571E+01
     -6.524  0.3465E-01  0.2580E+01
     -6.277  0.1203E-02  0.2580E+01
     -6.029  0.1498E-07  0.2580E+01
     -5.782  0.0000E+00  0.2580E+01
     -5.534  0.0000E+00  0.2580E+01
     -5.287  0.2774E-10  0.2580E+01
     -5.039  0.8685E-04  0.2580E+01
     -4.792  0.2421E-01  0.2586E+01
     -4.544  0.5603E-01  0.2600E+01
     -4.297  0.5855E-01  0.2614E+01
     -4.049  0.1086E+00  0.2641E+01
     -3.802  0.1219E+00  0.2671E+01
     -3.554  0.1584E+00  0.2711E+01
     -3.307  0.2687E+00  0.2777E+01
     -3.059  0.2653E+00  0.2843E+01
     -2.812  0.2510E+00  0.2905E+01
     -2.564  0.1421E+00  0.2940E+01
     -2.317  0.7405E-01  0.2958E+01
     -2.070  0.6584E-02  0.2960E+01
     -1.822  0.1575E-04  0.2960E+01
     -1.575  0.2010E-11  0.2960E+01
     -1.327  0.0000E+00  0.2960E+01
     -1.080  0.0000E+00  0.2960E+01
     -0.832  0.0000E+00  0.2960E+01
     -0.585  0.1762E-09  0.2960E+01
     -0.337  0.1541E-03  0.2960E+01
     -0.090  0.6283E-02  0.2962E+01
      0.158  0.3014E-01  0.2969E+01
      0.405  0.8462E-01  0.2990E+01
      0.653  0.9957E-01  0.3015E+01
      0.900  0.1355E+00  0.3048E+01
      1.148  0.1931E+00  0.3096E+01
      1.395  0.2912E+00  0.3168E+01
      1.643  0.2829E+00  0.3238E+01
      1.890  0.2777E+00  0.3307E+01
      2.137  0.3233E+00  0.3387E+01
      2.385  0.3469E+00  0.3473E+01
      2.632  0.4518E+00  0.3584E+01
      2.880  0.5303E+00  0.3716E+01
      3.127  0.5073E+00  0.3841E+01
      3.375  0.5157E+00  0.3969E+01
      3.622  0.6195E+00  0.4122E+01
      3.870  0.6316E+00  0.4278E+01
      4.117  0.5611E+00  0.4417E+01
      4.365  0.4730E+00  0.4534E+01
      4.612  0.4142E+00  0.4637E+01
      4.860  0.3177E+00  0.4715E+01
      5.107  0.2601E+00  0.4780E+01
      5.355  0.1777E+00  0.4824E+01
      5.602  0.1633E+00  0.4864E+01
      5.850  0.6682E-01  0.4881E+01
      6.097  0.5155E-01  0.4893E+01
      6.344  0.1527E+00  0.4931E+01
      6.592  0.1789E+00  0.4976E+01
      6.839  0.1448E+00  0.5011E+01
      7.087  0.1407E+00  0.5046E+01
      7.334  0.1631E+00  0.5087E+01
      7.582  0.1908E+00  0.5134E+01
      7.829  0.2654E+00  0.5199E+01
      8.077  0.3103E+00  0.5276E+01
      8.324  0.3410E+00  0.5361E+01
      8.572  0.4099E+00  0.5462E+01
      8.819  0.4665E+00  0.5577E+01
      9.067  0.4524E+00  0.5689E+01
      9.314  0.4555E+00  0.5802E+01
      9.562  0.4905E+00  0.5924E+01
      9.809  0.4662E+00  0.6039E+01
     10.057  0.3934E+00  0.6136E+01
     10.304  0.9549E-01  0.6160E+01
     10.551  0.3248E-03  0.6160E+01
     10.799  0.7906E-10  0.6160E+01
     11.046  0.0000E+00  0.6160E+01
     11.294  0.0000E+00  0.6160E+01
     11.541  0.0000E+00  0.6160E+01
     11.789  0.0000E+00  0.6160E+01
     12.036  0.0000E+00  0.6160E+01
     12.284  0.0000E+00  0.6160E+01
     12.531  0.0000E+00  0.6160E+01
     12.779  0.0000E+00  0.6160E+01
     13.026  0.0000E+00  0.6160E+01
     13.274  0.0000E+00  0.6160E+01
     13.521  0.0000E+00  0.6160E+01
