 vasp.6.4.3 19Mar24 (build Sep 18 2024 11:30:23) complex                        
  
 executed on             LinuxIFC date 2026.07.03  22:37:23
 running   28 mpi-ranks, on    1 nodes
 distrk:  each k-point on   28 cores,    1 groups
 distr:  one band on NCORE=   1 cores,   28 groups


--------------------------------------------------------------------------------------------------------


 INCAR:
   SYSTEM = HECN
   ISTART = 0
   ICHARG = 2
   PREC = Normal
   LREAL = .F.
   IBRION = 2
   ISIF = 3
   NSW = 100
   POTIM = 0.5
   EDIFFG = -0.01
   ENCUT = 400
   NELM = 60
   EDIFF = 1E-5
   LCHARG = .F.
   LWAVE = .F.
   ISMEAR = 0
   SIGMA = 0.1
   ALGO = Fast

 POTCAR:   PAW_PBE Ti_sv 07Sep2000                
 POTCAR:   PAW_PBE Ta_pv 07Sep2000                
 POTCAR:   PAW_PBE Hf_pv 06Sep2000                
 POTCAR:   PAW_PBE N 08Apr2002                    
 POTCAR:   PAW_PBE C 08Apr2002                    
 POTCAR:   PAW_PBE Zr_sv 07Sep2000                
 POTCAR:   PAW_PBE V_sv 07Sep2000                 
 -----------------------------------------------------------------------------
|                                                                             |
|           W    W    AA    RRRRR   N    N  II  N    N   GGGG   !!!           |
|           W    W   A  A   R    R  NN   N  II  NN   N  G    G  !!!           |
|           W    W  A    A  R    R  N N  N  II  N N  N  G       !!!           |
|           W WW W  AAAAAA  RRRRR   N  N N  II  N  N N  G  GGG   !            |
|           WW  WW  A    A  R   R   N   NN  II  N   NN  G    G                |
|           W    W  A    A  R    R  N    N  II  N    N   GGGG   !!!           |
|                                                                             |
|     For optimal performance we recommend to set                             |
|       NCORE = 2 up to number-of-cores-per-socket                            |
|     NCORE specifies how many cores store one orbital (NPAR=cpu/NCORE).      |
|     This setting can greatly improve the performance of VASP for DFT.       |
|     The default, NCORE=1 might be grossly inefficient on modern             |
|     multi-core architectures or massively parallel machines. Do your        |
|     own testing! More info at https://www.vasp.at/wiki/index.php/NCORE      |
|     Unfortunately you need to use the default for GW and RPA                |
|     calculations (for HF NCORE is supported but not extensively tested      |
|     yet).                                                                   |
|                                                                             |
 -----------------------------------------------------------------------------

 POTCAR:   PAW_PBE Ti_sv 07Sep2000                
   VRHFIN =Ti: 3p4s3d                                                                               
   LEXCH  = PE                                                                                      
   EATOM  =  1587.5048 eV,  116.6783 Ry                                                             
                                                                                                    
   TITEL  = PAW_PBE Ti_sv 07Sep2000                                                                 
   LULTRA =        F    use ultrasoft PP ?                                                          
   IUNSCR =        1    unscreen: 0-lin 1-nonlin 2-no                                               
   RPACOR =    2.000    partial core radius                                                         
   POMASS =   47.880; ZVAL   =   12.000    mass and valenz                                          
   RCORE  =    2.300    outmost cutoff radius                                                       
   RWIGS  =    2.300; RWIGS  =    1.217    wigner-seitz radius (au A)                               
   ENMAX  =  274.574; ENMIN  =  205.930 eV                                                          
   RCLOC  =    1.701    cutoff for local pot                                                        
   LCOR   =        T    correct aug charges                                                         
   LPAW   =        T    paw PP                                                                      
   EAUG   =  482.848                                                                                
   DEXC   =     .000                                                                                
   RMAX   =    2.783    core radius for proj-oper                                                   
   RAUG   =    1.300    factor for augmentation sphere                                              
   RDEP   =    2.381    radius for radial grids                                                     
   QCUT   =   -4.492; QGAM   =    8.985    optimization parameters                                  
                                                                                                    
   Description                                                                                      
     l     E      TYP  RCUT    TYP  RCUT                                                            
     0   .000     23  1.800                                                                         
     0   .000     23  2.300                                                                         
     0   .000     23  1.800                                                                         
     0   .000     23  2.300                                                                         
     1   .000     23  2.300                                                                         
     1  -.100     23  2.300                                                                         
     2   .000     23  2.300                                                                         
     2   .000     23  2.300                                                                         
     3   .000      7   .000                                                                         
  local pseudopotential read in
  partial core-charges read in
  atomic valenz-charges read in
  non local Contribution for L=           0  read in
    real space projection operators read in
  non local Contribution for L=           0  read in
    real space projection operators read in
  non local Contribution for L=           1  read in
    real space projection operators read in
  non local Contribution for L=           1  read in
    real space projection operators read in
  non local Contribution for L=           2  read in
    real space projection operators read in
  non local Contribution for L=           2  read in
    real space projection operators read in
    PAW grid and wavefunctions read in
 
   number of l-projection  operators is LMAX  =           6
   number of lm-projection operators is LMMAX =          18
 
 POTCAR:   PAW_PBE Ta_pv 07Sep2000                
   VRHFIN =Ta:  5p6s5d                                                                              
   LEXCH  = PE                                                                                      
   EATOM  =  1045.8051 eV,   76.8645 Ry                                                             
                                                                                                    
   TITEL  = PAW_PBE Ta_pv 07Sep2000                                                                 
   LULTRA =        F    use ultrasoft PP ?                                                          
   IUNSCR =        1    unscreen: 0-lin 1-nonlin 2-no                                               
   RPACOR =    2.330    partial core radius                                                         
   POMASS =  180.948; ZVAL   =   11.000    mass and valenz                                          
   RCORE  =    2.500    outmost cutoff radius                                                       
   RWIGS  =    2.840; RWIGS  =    1.503    wigner-seitz radius (au A)                               
   ENMAX  =  223.675; ENMIN  =  167.756 eV                                                          
   RCLOC  =    2.205    cutoff for local pot                                                        
   LCOR   =        T    correct aug charges                                                         
   LPAW   =        T    paw PP                                                                      
   EAUG   =  377.421                                                                                
   DEXC   =    -.043                                                                                
   RMAX   =    3.083    core radius for proj-oper                                                   
   RAUG   =    1.300    factor for augmentation sphere                                              
   RDEP   =    2.526    radius for radial grids                                                     
   QCUT   =   -4.055; QGAM   =    8.109    optimization parameters                                  
                                                                                                    
   Description                                                                                      
     l     E      TYP  RCUT    TYP  RCUT                                                            
     1   .000     23  2.500                                                                         
     1   .100     23  2.500                                                                         
     2   .000     23  2.500                                                                         
     2   .000     23  2.500                                                                         
     0   .000     23  2.500                                                                         
     0   .000     23  2.500                                                                         
     3   .000      7   .000                                                                         
  local pseudopotential read in
  partial core-charges read in
  atomic valenz-charges read in
  non local Contribution for L=           1  read in
    real space projection operators read in
  non local Contribution for L=           1  read in
    real space projection operators read in
  non local Contribution for L=           2  read in
    real space projection operators read in
  non local Contribution for L=           2  read in
    real space projection operators read in
  non local Contribution for L=           0  read in
    real space projection operators read in
  non local Contribution for L=           0  read in
    real space projection operators read in
    PAW grid and wavefunctions read in
 
   number of l-projection  operators is LMAX  =           6
   number of lm-projection operators is LMMAX =          18
 
 POTCAR:   PAW_PBE Hf_pv 06Sep2000                
   VRHFIN =Hf: 5p6s5d                                                                               
   LEXCH  = PE                                                                                      
   EATOM  =   859.6195 eV,   63.1803 Ry                                                             
                                                                                                    
   TITEL  = PAW_PBE Hf_pv 06Sep2000                                                                 
   LULTRA =        F    use ultrasoft PP ?                                                          
   IUNSCR =        1    unscreen: 0-lin 1-nonlin 2-no                                               
   RPACOR =    2.500    partial core radius                                                         
   POMASS =  178.490; ZVAL   =   10.000    mass and valenz                                          
   RCORE  =    2.600    outmost cutoff radius                                                       
   RWIGS  =    3.050; RWIGS  =    1.614    wigner-seitz radius (au A)                               
   ENMAX  =  220.342; ENMIN  =  165.256 eV                                                          
   RCLOC  =    2.212    cutoff for local pot                                                        
   LCOR   =        T    correct aug charges                                                         
   LPAW   =        T    paw PP                                                                      
   EAUG   =  380.878                                                                                
   DEXC   =    -.057                                                                                
   RMAX   =    3.106    core radius for proj-oper                                                   
   RAUG   =    1.300    factor for augmentation sphere                                              
   RDEP   =    2.681    radius for radial grids                                                     
   QCUT   =   -4.024; QGAM   =    8.049    optimization parameters                                  
                                                                                                    
   Description                                                                                      
     l     E      TYP  RCUT    TYP  RCUT                                                            
     1   .000     23  2.500                                                                         
     1   .000     23  2.500                                                                         
     2   .000     23  2.500                                                                         
     2   .000     23  2.500                                                                         
     0   .000     23  2.600                                                                         
     0   .000     23  2.600                                                                         
     3   .000      7   .000                                                                         
  local pseudopotential read in
  partial core-charges read in
  atomic valenz-charges read in
  non local Contribution for L=           1  read in
    real space projection operators read in
  non local Contribution for L=           1  read in
    real space projection operators read in
  non local Contribution for L=           2  read in
    real space projection operators read in
  non local Contribution for L=           2  read in
    real space projection operators read in
  non local Contribution for L=           0  read in
    real space projection operators read in
  non local Contribution for L=           0  read in
    real space projection operators read in
    PAW grid and wavefunctions read in
 
   number of l-projection  operators is LMAX  =           6
   number of lm-projection operators is LMMAX =          18
 
 POTCAR:   PAW_PBE N 08Apr2002                    
   VRHFIN =N: s2p3                                                                                  
   LEXCH  = PE                                                                                      
   EATOM  =   264.5486 eV,   19.4438 Ry                                                             
                                                                                                    
   TITEL  = PAW_PBE N 08Apr2002                                                                     
   LULTRA =        F    use ultrasoft PP ?                                                          
   IUNSCR =        0    unscreen: 0-lin 1-nonlin 2-no                                               
   RPACOR =     .000    partial core radius                                                         
   POMASS =   14.001; ZVAL   =    5.000    mass and valenz                                          
   RCORE  =    1.500    outmost cutoff radius                                                       
   RWIGS  =    1.400; RWIGS  =     .741    wigner-seitz radius (au A)                               
   ENMAX  =  400.000; ENMIN  =  300.000 eV                                                          
   ICORE  =        2    local potential                                                             
   LCOR   =        T    correct aug charges                                                         
   LPAW   =        T    paw PP                                                                      
   EAUG   =  627.112                                                                                
   DEXC   =     .000                                                                                
   RMAX   =    2.247    core radius for proj-oper                                                   
   RAUG   =    1.300    factor for augmentation sphere                                              
   RDEP   =    1.514    radius for radial grids                                                     
   QCUT   =   -5.562; QGAM   =   11.124    optimization parameters                                  
                                                                                                    
   Description                                                                                      
     l     E      TYP  RCUT    TYP  RCUT                                                            
     0   .000     23  1.200                                                                         
     0   .000     23  1.200                                                                         
     1   .000     23  1.500                                                                         
     1   .700     23  1.500                                                                         
     2   .000      7  1.500                                                                         
  local pseudopotential read in
  atomic valenz-charges read in
  non local Contribution for L=           0  read in
    real space projection operators read in
  non local Contribution for L=           0  read in
    real space projection operators read in
  non local Contribution for L=           1  read in
    real space projection operators read in
  non local Contribution for L=           1  read in
    real space projection operators read in
    PAW grid and wavefunctions read in
 
   number of l-projection  operators is LMAX  =           4
   number of lm-projection operators is LMMAX =           8
 
 POTCAR:   PAW_PBE C 08Apr2002                    
   VRHFIN =C: s2p2                                                                                  
   LEXCH  = PE                                                                                      
   EATOM  =   147.1560 eV,   10.8157 Ry                                                             
                                                                                                    
   TITEL  = PAW_PBE C 08Apr2002                                                                     
   LULTRA =        F    use ultrasoft PP ?                                                          
   IUNSCR =        0    unscreen: 0-lin 1-nonlin 2-no                                               
   RPACOR =     .000    partial core radius                                                         
   POMASS =   12.011; ZVAL   =    4.000    mass and valenz                                          
   RCORE  =    1.500    outmost cutoff radius                                                       
   RWIGS  =    1.630; RWIGS  =     .863    wigner-seitz radius (au A)                               
   ENMAX  =  400.000; ENMIN  =  300.000 eV                                                          
   ICORE  =        2    local potential                                                             
   LCOR   =        T    correct aug charges                                                         
   LPAW   =        T    paw PP                                                                      
   EAUG   =  644.873                                                                                
   DEXC   =     .000                                                                                
   RMAX   =    2.266    core radius for proj-oper                                                   
   RAUG   =    1.300    factor for augmentation sphere                                              
   RDEP   =    1.501    radius for radial grids                                                     
   RDEPT  =    1.300    core radius for aug-charge                                                  
   QCUT   =   -5.516; QGAM   =   11.032    optimization parameters                                  
                                                                                                    
   Description                                                                                      
     l     E      TYP  RCUT    TYP  RCUT                                                            
     0   .000     23  1.200                                                                         
     0   .000     23  1.200                                                                         
     1   .000     23  1.500                                                                         
     1  2.500     23  1.500                                                                         
     2   .000      7  1.500                                                                         
  local pseudopotential read in
  atomic valenz-charges read in
  non local Contribution for L=           0  read in
    real space projection operators read in
  non local Contribution for L=           0  read in
    real space projection operators read in
  non local Contribution for L=           1  read in
    real space projection operators read in
  non local Contribution for L=           1  read in
    real space projection operators read in
    PAW grid and wavefunctions read in
 
   number of l-projection  operators is LMAX  =           4
   number of lm-projection operators is LMMAX =           8
 
 POTCAR:   PAW_PBE Zr_sv 07Sep2000                
   VRHFIN =Zr: 4s4p5s4d                                                                             
   LEXCH  = PE                                                                                      
   EATOM  =  1283.3934 eV,   94.3268 Ry                                                             
                                                                                                    
   TITEL  = PAW_PBE Zr_sv 07Sep2000                                                                 
   LULTRA =        F    use ultrasoft PP ?                                                          
   IUNSCR =        1    unscreen: 0-lin 1-nonlin 2-no                                               
   RPACOR =    2.200    partial core radius                                                         
   POMASS =   91.224; ZVAL   =   12.000    mass and valenz                                          
   RCORE  =    2.500    outmost cutoff radius                                                       
   RWIGS  =    3.070; RWIGS  =    1.625    wigner-seitz radius (au A)                               
   ENMAX  =  229.839; ENMIN  =  172.379 eV                                                          
   RCLOC  =    2.213    cutoff for local pot                                                        
   LCOR   =        T    correct aug charges                                                         
   LPAW   =        T    paw PP                                                                      
   EAUG   =  357.078                                                                                
   DEXC   =     .000                                                                                
   RMAX   =    3.041    core radius for proj-oper                                                   
   RAUG   =    1.300    factor for augmentation sphere                                              
   RDEP   =    2.597    radius for radial grids                                                     
   QCUT   =   -4.110; QGAM   =    8.220    optimization parameters                                  
                                                                                                    
   Description                                                                                      
     l     E      TYP  RCUT    TYP  RCUT                                                            
     0   .000     23  2.500                                                                         
     0   .000     23  2.500                                                                         
     1   .000     23  2.500                                                                         
     1   .000     23  2.500                                                                         
     2   .000     23  2.500                                                                         
     2   .000     23  2.500                                                                         
     3   .000      7   .000                                                                         
  local pseudopotential read in
  partial core-charges read in
  atomic valenz-charges read in
  non local Contribution for L=           0  read in
    real space projection operators read in
  non local Contribution for L=           0  read in
    real space projection operators read in
  non local Contribution for L=           1  read in
    real space projection operators read in
  non local Contribution for L=           1  read in
    real space projection operators read in
  non local Contribution for L=           2  read in
    real space projection operators read in
  non local Contribution for L=           2  read in
    real space projection operators read in
    PAW grid and wavefunctions read in
 
   number of l-projection  operators is LMAX  =           6
   number of lm-projection operators is LMMAX =          18
 
 POTCAR:   PAW_PBE V_sv 07Sep2000                 
   VRHFIN =V: p6 d4 s1                                                                              
   LEXCH  = PE                                                                                      
   EATOM  =  1951.3925 eV,  143.4233 Ry                                                             
                                                                                                    
   TITEL  = PAW_PBE V_sv 07Sep2000                                                                  
   LULTRA =        F    use ultrasoft PP ?                                                          
   IUNSCR =        1    unscreen: 0-lin 1-nonlin 2-no                                               
   RPACOR =    2.000    partial core radius                                                         
   POMASS =   50.941; ZVAL   =   13.000    mass and valenz                                          
   RCORE  =    2.300    outmost cutoff radius                                                       
   RWIGS  =    2.300; RWIGS  =    1.217    wigner-seitz radius (au A)                               
   ENMAX  =  263.675; ENMIN  =  197.756 eV                                                          
   RCLOC  =    1.779    cutoff for local pot                                                        
   LCOR   =        T    correct aug charges                                                         
   LPAW   =        T    paw PP                                                                      
   EAUG   =  526.568                                                                                
   DEXC   =     .000                                                                                
   RMAX   =    2.839    core radius for proj-oper                                                   
   RAUG   =    1.300    factor for augmentation sphere                                              
   RDEP   =    2.430    radius for radial grids                                                     
   QCUT   =   -4.402; QGAM   =    8.804    optimization parameters                                  
                                                                                                    
   Description                                                                                      
     l     E      TYP  RCUT    TYP  RCUT                                                            
     0   .000     23  1.800                                                                         
     0   .000     23  2.300                                                                         
     0   .000     23  1.800                                                                         
     0   .000     23  2.300                                                                         
     1   .000     23  2.000                                                                         
     1   .400     23  2.000                                                                         
     2   .000     23  2.300                                                                         
     2   .000     23  2.300                                                                         
     3   .000      7   .000                                                                         
  local pseudopotential read in
  partial core-charges read in
  atomic valenz-charges read in
  non local Contribution for L=           0  read in
    real space projection operators read in
  non local Contribution for L=           0  read in
    real space projection operators read in
  non local Contribution for L=           1  read in
    real space projection operators read in
  non local Contribution for L=           1  read in
    real space projection operators read in
  non local Contribution for L=           2  read in
    real space projection operators read in
  non local Contribution for L=           2  read in
    real space projection operators read in
    PAW grid and wavefunctions read in
 
   number of l-projection  operators is LMAX  =           6
   number of lm-projection operators is LMMAX =          18
 
 -----------------------------------------------------------------------------
|                                                                             |
|               ----> ADVICE to this user running VASP <----                  |
|                                                                             |
|     You have a (more or less) 'large supercell' and for larger cells it     |
|     might be more efficient to use real-space projection operators.         |
|     Therefore, try LREAL= Auto in the INCAR file.                           |
|     Mind: If you want to do very accurate calculations, keep the            |
|     reciprocal projection scheme (i.e. LREAL=.FALSE.).                      |
|                                                                             |
 -----------------------------------------------------------------------------

 PAW_PBE Ti_sv 07Sep2000                :
 energy of atom  1       EATOM=-1587.5048
 kinetic energy error for atom=    0.0139 (will be added to EATOM!!)
 PAW_PBE Ta_pv 07Sep2000                :
 energy of atom  2       EATOM=-1045.8051
 kinetic energy error for atom=    0.0046 (will be added to EATOM!!)
 PAW_PBE Hf_pv 06Sep2000                :
 energy of atom  3       EATOM= -859.6195
 kinetic energy error for atom=    0.0038 (will be added to EATOM!!)
 PAW_PBE N 08Apr2002                    :
 energy of atom  4       EATOM= -264.5486
 kinetic energy error for atom=    0.0736 (will be added to EATOM!!)
 PAW_PBE C 08Apr2002                    :
 energy of atom  5       EATOM= -147.1560
 kinetic energy error for atom=    0.0288 (will be added to EATOM!!)
 PAW_PBE Zr_sv 07Sep2000                :
 energy of atom  6       EATOM=-1283.3934
 kinetic energy error for atom=    0.0044 (will be added to EATOM!!)
 PAW_PBE V_sv 07Sep2000                 :
 energy of atom  7       EATOM=-1951.3925
 kinetic energy error for atom=    0.0321 (will be added to EATOM!!)
 
 
 POSCAR: TiZrHfVTa
  positions in direct lattice
  velocities in cartesian coordinates


 exchange-correlation table for PE
   RHO(1)=    0.500       N(1)  =     2000
   RHO(2)=  100.500       N(2)  =     4000
 


--------------------------------------------------------------------------------------------------------


 ion  position               nearest neighbor table
   1  1.000  0.994  0.014-  33 2.11  37 2.14  24 2.17  21 2.17  22 2.24  28 2.33  16 3.06  18 3.12
                             8 3.12   9 3.16  55 3.20  14 3.20  17 3.24  57 3.24
   2  0.242  0.993  0.253-  33 2.12  42 2.13  35 2.19  21 2.19  25 2.30  20 2.31  61 2.91   8 3.10
                            58 3.11  18 3.13  56 3.16  54 3.20  19 3.20  52 3.22  14 3.23  15 3.30
   3  0.260  0.506  0.252-  40 2.15  45 2.17  35 2.19  36 2.21  26 2.30  20 2.30  54 3.04  58 3.07
                            15 3.11  18 3.12  19 3.15  53 3.15  14 3.18
   4  0.501  0.501  0.002-  39 2.15  36 2.19  27 2.20  40 2.23  34 2.23  51 2.26   9 3.10  13 3.12
                            17 3.12  54 3.13  15 3.13  18 3.16  14 3.17
   5  0.498  0.263  0.748-  51 2.13  31 2.18  41 2.19  34 2.21  29 2.22  13 3.02  11 3.12  19 3.12
                            17 3.13  14 3.16  52 3.24  56 3.27  55 3.29  57 3.37
   6  0.999  0.503  0.490-  26 2.06  49 2.22  46 2.24  45 2.25  47 2.25  43 2.28  11 3.02  12 3.06
                            10 3.08  58 3.09   8 3.11  19 3.16  13 3.24
   7  0.505  0.738  0.745-  50 2.12  51 2.13  48 2.15  27 2.21  44 2.26  13 3.05  56 3.15  58 3.17
                            57 3.18   9 3.18  18 3.22  52 3.26  55 3.31
   8  0.999  0.241  0.262-  43 2.12  23 2.18  33 2.19  20 2.22  26 2.24  22 2.30  61 2.95  19 3.07
                            11 3.10   2 3.10  16 3.10   6 3.11   1 3.12  14 3.20  17 3.24  53 3.25
   9  0.753  0.741  0.004-  39 2.14  37 2.15  38 2.22  27 2.23  48 2.28  24 2.33  60 2.99  63 3.03
                            53 3.06   4 3.10  54 3.15  59 3.15   1 3.16  12 3.17   7 3.18  16 3.18
  10  0.001  0.265  0.739-  47 2.11  43 2.13  41 2.22  29 2.25  22 2.35  28 2.36  11 3.03  19 3.08
                             6 3.08  13 3.11  17 3.17  63 3.19  14 3.20  55 3.21  53 3.22  57 3.29
  11  0.752  0.273  0.506-  49 2.10  29 2.15  43 2.19  31 2.19  23 2.25  30 2.33   6 3.02  62 3.03
                            10 3.03  63 3.06   8 3.10   5 3.12  60 3.14  15 3.16  57 3.31  16 3.35
  12  0.995  0.737  0.741-  47 2.13  46 2.20  48 2.20  44 2.26  37 2.33  28 2.39   6 3.06  63 3.06
                            64 3.07  57 3.10  58 3.10  13 3.15   9 3.17  53 3.18  18 3.22  55 3.22
  13  0.258  0.501  0.748-  51 2.19  44 2.20  41 2.22  45 2.24  36 2.27  47 2.33   5 3.02   7 3.05
                            10 3.11   4 3.12  58 3.13  62 3.13  19 3.14  12 3.15  18 3.16  14 3.17
  14  0.248  0.253  0.001-  20 2.21  22 2.21  36 2.22  41 2.23  34 2.25  21 2.27  53 3.15   5 3.16
                             4 3.17  15 3.17  13 3.17  52 3.18   3 3.18  10 3.20   8 3.20  55 3.20
  15  0.503  0.256  0.252-  40 2.19  23 2.22  31 2.23  25 2.25  20 2.26  34 2.26  60 3.08   3 3.11
                            19 3.13   4 3.13  62 3.15  11 3.16  14 3.17  17 3.18  52 3.21  56 3.24
  16  0.756  0.992  0.257-  30 2.15  33 2.20  38 2.26  25 2.26  24 2.27  23 2.33  59 2.94  61 3.00
                             1 3.06   8 3.10  54 3.16  56 3.16   9 3.18  64 3.21  52 3.24  15 3.27
  17  0.751  0.257  0.994-  29 2.19  39 2.21  22 2.21  34 2.22  24 2.31  23 2.31  63 3.09   4 3.12
                            53 3.12   5 3.13  10 3.17  15 3.18  60 3.20  52 3.20   1 3.24   8 3.24
  18  0.247  0.748  0.001-  35 2.20  44 2.22  36 2.23  37 2.24  27 2.26  21 2.26   1 3.12  53 3.12
                             3 3.12   2 3.13  13 3.16   4 3.16  54 3.17  55 3.18  52 3.18  59 3.19
  19  0.250  0.254  0.498-  45 2.20  20 2.21  41 2.24  43 2.25  31 2.26  42 2.26   8 3.07  10 3.08
                             5 3.12  15 3.13  13 3.14   3 3.15   6 3.16  61 3.16  55 3.19   2 3.20
  20  0.248  0.250  0.250-  19 2.21  14 2.21   8 2.22  15 2.26   3 2.30   2 2.31
  21  0.244  0.000  0.006-   1 2.17   2 2.19  18 2.26  14 2.27  52 2.27  55 2.29
  22  0.999  0.243  0.003-  14 2.21  17 2.21   1 2.24   8 2.30  53 2.34  10 2.35
  23  0.753  0.251  0.254-   8 2.18  15 2.22  11 2.25  17 2.31  16 2.33  60 2.34
  24  0.756  0.000  0.002-   1 2.17  16 2.27  52 2.27  17 2.31  57 2.31   9 2.33
  25  0.501  0.005  0.249-  52 2.23  56 2.24  15 2.25  16 2.26   2 2.30  54 2.33
  26  0.001  0.490  0.258-   6 2.06  53 2.20   8 2.24   3 2.30
  27  0.502  0.746  0.994-   4 2.20   7 2.21   9 2.23  18 2.26  52 2.29  54 2.30
  28  0.997  0.002  0.752-  57 2.14  55 2.17   1 2.33  10 2.36  12 2.39
  29  0.748  0.253  0.747-  11 2.15  17 2.19   5 2.22  10 2.25  63 2.28  57 2.37
  30  0.755  0.014  0.499-  16 2.15  57 2.17  61 2.25  56 2.30  11 2.33
  31  0.505  0.254  0.502-   5 2.18  11 2.19  15 2.23  19 2.26  62 2.29  56 2.35
  32  0.503  0.000  0.750-  52 2.20  56 2.21  57 2.25  55 2.32
  33  0.004  0.997  0.252-  61 2.05  59 2.06   1 2.11   2 2.12   8 2.19  16 2.20
  34  0.501  0.253  0.997-   5 2.21  17 2.22   4 2.23  14 2.25  15 2.26  52 2.27
  35  0.241  0.749  0.248-  59 2.16   3 2.19   2 2.19  18 2.20  58 2.22  54 2.32
  36  0.255  0.500  0.003-   4 2.19   3 2.21  14 2.22  18 2.23  13 2.27  53 2.27
  37  0.996  0.756  0.003-   1 2.14   9 2.15  18 2.24  53 2.28  59 2.28  12 2.33
  38  0.759  0.740  0.254-  60 2.07  59 2.14  64 2.15   9 2.22  16 2.26  54 2.28
  39  0.744  0.502  0.002-   9 2.14   4 2.15  60 2.17  63 2.18  17 2.21  53 2.27
  40  0.502  0.499  0.252-  60 2.07   3 2.15  62 2.18  15 2.19  54 2.22   4 2.23
  41  0.251  0.254  0.750-   5 2.19  13 2.22  10 2.22  14 2.23  19 2.24  55 2.29
  42  0.242  0.002  0.493-  61 2.08   2 2.13  19 2.26  55 2.27  56 2.27  58 2.30
  43  0.997  0.250  0.500-   8 2.12  10 2.13  11 2.19  19 2.25   6 2.28  61 2.28
  44  0.250  0.746  0.752-  13 2.20  18 2.22  58 2.25   7 2.26  12 2.26  55 2.28
  45  0.253  0.498  0.496-   3 2.17  19 2.20  58 2.22  13 2.24   6 2.25  62 2.25
  46  0.989  0.752  0.495-  59 2.10  64 2.12  12 2.20  61 2.20   6 2.24  58 2.28
  47  0.996  0.500  0.743-  10 2.11  12 2.13   6 2.25  63 2.28  13 2.33  53 2.37
  48  0.747  0.740  0.747-  63 2.09   7 2.15  12 2.20  57 2.24  64 2.24   9 2.28
  49  0.749  0.506  0.498-  64 1.95  11 2.10  62 2.15   6 2.22  60 2.24  63 2.30
  50  0.509  0.740  0.507-  62 2.09   7 2.12  64 2.15  54 2.25  56 2.27  58 2.34
  51  0.505  0.500  0.747-  63 2.08   5 2.13   7 2.13  13 2.19  62 2.22   4 2.26
  52  0.500  0.001  0.998-  32 2.20  25 2.23  34 2.27  21 2.27  24 2.27  27 2.29  14 3.18  55 3.18
                            18 3.18  17 3.20  15 3.21   2 3.22  57 3.22  54 3.22  16 3.24   5 3.24
  53  0.999  0.503  0.010-  26 2.20  39 2.27  36 2.27  37 2.28  22 2.34  47 2.37   9 3.06  18 3.12
                            17 3.12  60 3.14  14 3.15   3 3.15  12 3.18  10 3.22  63 3.22   8 3.25
  54  0.502  0.746  0.253-  40 2.22  50 2.25  38 2.28  27 2.30  35 2.32  25 2.33  60 2.96   3 3.04
                            62 3.05  64 3.09  56 3.12   4 3.13   9 3.15  58 3.15  16 3.16  18 3.17
  55  0.242  0.999  0.748-  28 2.17  42 2.27  44 2.28  21 2.29  41 2.29  32 2.32  61 3.14  56 3.15
                            58 3.17  52 3.18  18 3.18  19 3.19   1 3.20  14 3.20  10 3.21  12 3.22
  56  0.497  0.992  0.501-  32 2.21  25 2.24  42 2.27  50 2.27  30 2.30  31 2.35  54 3.12  57 3.14
                            58 3.14  55 3.15   7 3.15  16 3.16   2 3.16  19 3.21  15 3.24   5 3.27
  57  0.757  0.989  0.742-  28 2.14  30 2.17  48 2.24  32 2.25  24 2.31  29 2.37  12 3.10  56 3.14
                             7 3.18  61 3.21  52 3.22   9 3.22  64 3.24   1 3.24  17 3.28  10 3.29
  58  0.246  0.746  0.498-  35 2.22  45 2.22  44 2.25  46 2.28  42 2.30  50 2.34  59 3.06   3 3.07
                            61 3.09   6 3.09  12 3.10   2 3.11  13 3.13  56 3.14  54 3.15  62 3.15
  59  0.998  0.769  0.260-  33 2.06  46 2.10  38 2.14  35 2.16  37 2.28  61 2.84  16 2.94  58 3.06
                             9 3.15  18 3.19  53 3.26
  60  0.735  0.511  0.246-  40 2.07  38 2.07  39 2.17  49 2.24  23 2.34  54 2.96   9 2.99  15 3.08
                            53 3.14  11 3.14  17 3.20
  61  0.008  0.996  0.482-  33 2.05  42 2.08  46 2.20  30 2.25  43 2.28  59 2.84   2 2.91   8 2.95
                            16 3.00  58 3.09  55 3.14  19 3.16  57 3.21
  62  0.507  0.508  0.498-  50 2.09  49 2.15  40 2.18  51 2.22  45 2.25  31 2.29  64 2.91  11 3.03
                            54 3.05  13 3.13  15 3.15  58 3.15  19 3.22
  63  0.739  0.507  0.757-  51 2.08  48 2.09  39 2.18  47 2.28  29 2.28  49 2.30   9 3.03  11 3.06
                            12 3.06  17 3.09  10 3.19  53 3.22
  64  0.751  0.724  0.495-  49 1.95  46 2.12  38 2.15  50 2.15  48 2.24  62 2.91  12 3.07  54 3.09
                            16 3.21  57 3.24  56 3.30
 
  LATTYP: Found a triclinic cell.
 ALAT       =    15.4366909713
 B/A-ratio  =     0.5818981688
 C/A-ratio  =     0.5746486828
 COS(alpha) =     0.0001133877
 COS(beta)  =     0.5741439123
 COS(gamma) =     0.5827515253
  
  Lattice vectors:
  
 A1 = (   8.8668342701,  -8.9891786951,   8.8806162262)
 A2 = (   0.0005539669,  -8.9825801190,   0.0061010315)
 A3 = (   8.8706730225,  -0.0004617583,  -0.0044139937)


Analysis of symmetry for initial positions (statically):
=====================================================================
 Subroutine PRICEL returns:
 Original cell was already a primitive cell.
 

 Routine SETGRP: Setting up the symmetry group for a 
 triclinic supercell.


 Subroutine GETGRP returns: Found  1 space group operations
 (whereof  1 operations were pure point group operations)
 out of a pool of  2 trial point group operations.


The static configuration has the point symmetry C_1 .


Analysis of symmetry for dynamics (positions and initial velocities):
=====================================================================
 Subroutine PRICEL returns:
 Original cell was already a primitive cell.
 

 Routine SETGRP: Setting up the symmetry group for a 
 triclinic supercell.


 Subroutine GETGRP returns: Found  1 space group operations
 (whereof  1 operations were pure point group operations)
 out of a pool of  2 trial point group operations.


The dynamic configuration has the point symmetry C_1 .


 Subroutine INISYM returns: Found  1 space group operations
 (whereof  1 operations are pure point group operations),
 and found     1 'primitive' translations


----------------------------------------------------------------------------------------

                                     Primitive cell                                     

  volume of cell :     707.4862

  direct lattice vectors                    reciprocal lattice vectors
     8.870673023 -0.000461758 -0.004413994     0.112731046  0.000006990  0.000055777
    -0.000553967  8.982580119 -0.006101031     0.000005833  0.111326641  0.000076948
    -0.004392719 -0.006136818  8.878929188     0.000056046  0.000076500  0.112626274

  length of vectors
     8.870674133  8.982582208  8.878932396     0.112731060  0.111326668  0.112626314

  position of ions in fractional coordinates (direct lattice)
     0.999731192  0.993902923  0.014211288
     0.242257731  0.992890016  0.252932231
     0.259669442  0.505816704  0.252194276
     0.501046909  0.501414033  0.001597461
     0.497900657  0.263423182  0.747890960
     0.999078927  0.503027178  0.489746993
     0.504590574  0.737503798  0.745089174
     0.998866292  0.240529166  0.261559509
     0.753262660  0.740675338  0.003650608
     0.001265320  0.265041331  0.739030790
     0.751529264  0.273267203  0.505578823
     0.994611560  0.736754749  0.741362438
     0.257663249  0.501198530  0.748119566
     0.247796749  0.252857281  0.001382273
     0.502822030  0.255680169  0.251746484
     0.756072437  0.991672627  0.257263029
     0.750825967  0.256780617  0.993900802
     0.247465785  0.748484995  0.001093715
     0.250402505  0.253842929  0.498143750
     0.248167466  0.249576460  0.249770510
     0.243969498  0.000417998  0.005890380
     0.999304623  0.242729289  0.002527413
     0.752951707  0.250708163  0.253534126
     0.755769318  0.000237177  0.001815339
     0.501279500  0.004873300  0.249014420
     0.000655773  0.489913159  0.257800670
     0.502444690  0.746211172  0.994401030
     0.997312331  0.002260516  0.752135632
     0.747883834  0.253269627  0.747099211
     0.755310066  0.013996450  0.498576278
     0.505065276  0.253621274  0.502462756
     0.503408220  0.000029050  0.750132928
     0.003593174  0.997422153  0.251552469
     0.500898366  0.253418466  0.996902320
     0.240649427  0.748624181  0.248334936
     0.254740638  0.500201898  0.003359517
     0.995619480  0.755819357  0.002776436
     0.758616373  0.740096590  0.254181139
     0.743966778  0.502413954  0.002272573
     0.502280894  0.499431721  0.252346425
     0.251478813  0.254207588  0.749924269
     0.242097336  0.002010562  0.492794251
     0.997082945  0.249736417  0.500065497
     0.249550817  0.745583071  0.751580972
     0.252807310  0.498488149  0.496320002
     0.988622804  0.752389016  0.494683776
     0.995547494  0.500191388  0.743484029
     0.747205156  0.739721563  0.747395308
     0.749490756  0.506461959  0.497767677
     0.509145824  0.740313952  0.506558099
     0.505014991  0.500226114  0.747283472
     0.499648832  0.000870514  0.997645308
     0.999253182  0.502648377  0.010246946
     0.501636006  0.746020984  0.253073986
     0.242108766  0.998900350  0.748036212
     0.497428362  0.992462555  0.501492873
     0.756739520  0.989077416  0.741857116
     0.245717294  0.745967396  0.498456618
     0.998469745  0.768780592  0.259515415
     0.735195737  0.510725978  0.246139774
     0.007878845  0.996386033  0.482427230
     0.506571654  0.507979010  0.497923735
     0.739397888  0.507260138  0.756563579
     0.751163912  0.723556825  0.495383848

  ion indices of the primitive-cell ions
   primitive index   ion index
                 1           1
                 2           2
                 3           3
                 4           4
                 5           5
                 6           6
                 7           7
                 8           8
                 9           9
                10          10
                11          11
                12          12
                13          13
                14          14
                15          15
                16          16
                17          17
                18          18
                19          19
                20          20
                21          21
                22          22
                23          23
                24          24
                25          25
                26          26
                27          27
                28          28
                29          29
                30          30
                31          31
                32          32
                33          33
                34          34
                35          35
                36          36
                37          37
                38          38
                39          39
                40          40
                41          41
                42          42
                43          43
                44          44
                45          45
                46          46
                47          47
                48          48
                49          49
                50          50
                51          51
                52          52
                53          53
                54          54
                55          55
                56          56
                57          57
                58          58
                59          59
                60          60
                61          61
                62          62
                63          63
                64          64

----------------------------------------------------------------------------------------

 
 
 KPOINTS: HECN                                    

Automatic generation of k-mesh.
 Grid dimensions read from file:
 generate k-points for:    3    3    3

 Generating k-lattice:

  Cartesian coordinates                     Fractional coordinates (reciprocal lattice)
     0.037577015  0.000002330  0.000018592     0.333333333 -0.000000000  0.000000000
     0.000001944  0.037108880  0.000025649     0.000000000  0.333333333 -0.000000000
     0.000018682  0.000025500  0.037542091    -0.000000000 -0.000000000  0.333333333

  Length of vectors
     0.037577020  0.037108889  0.037542105

  Shift w.r.t. Gamma in fractional coordinates (k-lattice)
     0.000000000  0.000000000  0.000000000

 
 Subroutine IBZKPT returns following result:
 ===========================================
 
 Found     14 irreducible k-points:
 
 Following reciprocal coordinates:
            Coordinates               Weight
  0.000000  0.000000  0.000000      1.000000
  0.333333 -0.000000  0.000000      2.000000
  0.000000  0.333333  0.000000      2.000000
  0.333333  0.333333 -0.000000      2.000000
 -0.333333  0.333333  0.000000      2.000000
 -0.000000  0.000000  0.333333      2.000000
  0.333333 -0.000000  0.333333      2.000000
 -0.333333  0.000000  0.333333      2.000000
 -0.000000  0.333333  0.333333      2.000000
  0.333333  0.333333  0.333333      2.000000
 -0.333333  0.333333  0.333333      2.000000
 -0.000000 -0.333333  0.333333      2.000000
  0.333333 -0.333333  0.333333      2.000000
 -0.333333 -0.333333  0.333333      2.000000
 
 Following cartesian coordinates:
            Coordinates               Weight
  0.000000  0.000000  0.000000      1.000000
  0.037577  0.000002  0.000019      2.000000
  0.000002  0.037109  0.000026      2.000000
  0.037579  0.037111  0.000044      2.000000
 -0.037575  0.037107  0.000007      2.000000
  0.000019  0.000026  0.037542      2.000000
  0.037596  0.000028  0.037561      2.000000
 -0.037558  0.000023  0.037523      2.000000
  0.000021  0.037134  0.037568      2.000000
  0.037598  0.037137  0.037586      2.000000
 -0.037556  0.037132  0.037549      2.000000
  0.000017 -0.037083  0.037516      2.000000
  0.037594 -0.037081  0.037535      2.000000
 -0.037560 -0.037086  0.037498      2.000000
 


--------------------------------------------------------------------------------------------------------




 Dimension of arrays:
   k-points           NKPTS =     14   k-points in BZ     NKDIM =     14   number of bands    NBANDS=    308
   number of dos      NEDOS =    301   number of ions     NIONS =     64
   non local maximal  LDIM  =      6   non local SUM 2l+1 LMDIM =     18
   total plane-waves  NPLWV = 110592
   max r-space proj   IRMAX =      1   max aug-charges    IRDMAX=   9741
   dimension x,y,z NGX =    48 NGY =   48 NGZ =   48
   dimension x,y,z NGXF=    96 NGYF=   96 NGZF=   96
   support grid    NGXF=    96 NGYF=   96 NGZF=   96
   ions per type =               7   6   6  13  19   7   6
   NGX,Y,Z   is equivalent  to a cutoff of   9.00,  8.88,  8.99 a.u.
   NGXF,Y,Z  is equivalent  to a cutoff of  17.99, 17.77, 17.97 a.u.

 SYSTEM =  HECN                                    
 POSCAR =  TiZrHfVTa                               

 Startparameter for this run:
   NWRITE =      2    write-flag & timer
   PREC   = normal    normal or accurate (medium, high low for compatibility)
   ISTART =      0    job   : 0-new  1-cont  2-samecut
   ICHARG =      2    charge: 1-file 2-atom 10-const
   ISPIN  =      1    spin polarized calculation?
   LNONCOLLINEAR =      F non collinear calculations
   LSORBIT =      F    spin-orbit coupling
   INIWAV =      1    electr: 0-lowe 1-rand  2-diag
   LASPH  =      F    aspherical Exc in radial PAW
 Electronic Relaxation 1
   ENCUT  =  400.0 eV  29.40 Ry    5.42 a.u.  14.47 14.65 14.48*2*pi/ulx,y,z
   ENINI  =  400.0     initial cutoff
   ENAUG  =  644.9 eV  augmentation charge cutoff
   NELM   =     60;   NELMIN=  2; NELMDL= -5     # of ELM steps 
   EDIFF  = 0.1E-04   stopping-criterion for ELM
   LREAL  =      F    real-space projection
   NLSPLINE    = F    spline interpolate recip. space projectors
   LCOMPAT=      F    compatible to vasp.4.4
   GGA_COMPAT  = T    GGA compatible to vasp.4.4-vasp.4.6
   LMAXPAW     = -100 max onsite density
   LMAXMIX     =    2 max onsite mixed and CHGCAR
   VOSKOWN=      0    Vosko Wilk Nusair interpolation
   ROPT   =    0.00000   0.00000   0.00000   0.00000
   ROPT   =    0.00000   0.00000   0.00000
 Ionic relaxation
   EDIFFG = -.1E-01   stopping-criterion for IOM
   NSW    =    100    number of steps for IOM
   NBLOCK =      1;   KBLOCK =    100    inner block; outer block 
   IBRION =      2    ionic relax: 0-MD 1-quasi-New 2-CG
   NFREE  =      1    steps in history (QN), initial steepest desc. (CG)
   ISIF   =      3    stress and relaxation
   IWAVPR =     11    prediction:  0-non 1-charg 2-wave 3-comb
   ISYM   =      2    0-nonsym 1-usesym 2-fastsym
   LCORR  =      T    Harris-Foulkes like correction to forces

   POTIM  = 0.5000    time-step for ionic-motion
   TEIN   =    0.0    initial temperature
   TEBEG  =    0.0;   TEEND  =   0.0 temperature during run
   SMASS  =  -3.00    Nose mass-parameter (am)
   estimated Nose-frequenzy (Omega)   =  0.10E-29 period in steps = 0.13E+47 mass=  -0.180E-26a.u.
   SCALEE = 1.0000    scale energy and forces
   NPACO  =    256;   APACO  = 10.0  distance and # of slots for P.C.
   PSTRESS=    0.0 pullay stress

  Mass of Ions in am
   POMASS =  47.88180.95178.49 14.00 12.01 91.22 50.94
  Ionic Valenz
   ZVAL   =  12.00 11.00 10.00  5.00  4.00 12.00 13.00
  Atomic Wigner-Seitz radii
   RWIGS  =  -1.00 -1.00 -1.00 -1.00 -1.00 -1.00 -1.00
  virtual crystal weights 
   VCA    =   1.00  1.00  1.00  1.00  1.00  1.00  1.00
   NELECT =     513.0000    total number of electrons
   NUPDOWN=      -1.0000    fix difference up-down

 DOS related values:
   EMIN   =  10.00;   EMAX   =-10.00  energy-range for DOS
   EFERMI =   0.00;   METHOD = LEGACY      
   ISMEAR =     0;   SIGMA  =   0.10  broadening in eV -4-tet -1-fermi 0-gaus

 Electronic relaxation 2 (details)
   IALGO  =     68    algorithm
   LDIAG  =      T    sub-space diagonalisation (order eigenvalues)
   LSUBROT=      F    optimize rotation matrix (better conditioning)
   TURBO    =      0    0=normal 1=particle mesh
   IRESTART =      0    0=no restart 2=restart with 2 vectors
   NREBOOT  =      0    no. of reboots
   NMIN     =      0    reboot dimension
   EREF     =   0.00    reference energy to select bands
   IMIX   =      4    mixing-type and parameters
     AMIX     =   0.40;   BMIX     =  1.00
     AMIX_MAG =   1.60;   BMIX_MAG =  1.00
     AMIN     =   0.10
     WC   =   100.;   INIMIX=   1;  MIXPRE=   1;  MAXMIX= -45

 Intra band minimization:
   WEIMIN = 0.0010     energy-eigenvalue tresh-hold
   EBREAK =  0.81E-08  absolut break condition
   DEPER  =   0.30     relativ break condition  

   TIME   =   0.40     timestep for ELM

  volume/ion in A,a.u.               =      11.05        74.60
  Fermi-wavevector in a.u.,A,eV,Ry     =   1.470758  2.779330 29.431169  2.163130
  Thomas-Fermi vector in A             =   2.585976
 
 Write flags
   LWAVE        =      F    write WAVECAR
   LDOWNSAMPLE  =      F    k-point downsampling of WAVECAR
   LCHARG       =      F    write CHGCAR
   LVTOT        =      F    write LOCPOT, total local potential
   LVHAR        =      F    write LOCPOT, Hartree potential only
   WRT_POTENTIAL= false  ! write potential to hdf5 file
   LELF         =      F    write electronic localiz. function (ELF)
   LORBIT       =      0    0 simple, 1 ext, 2 COOP (PROOUT), +10 PAW based schemes


 Dipole corrections
   LMONO      =      F    monopole corrections only (constant potential shift)
   LDIPOL     =      F    correct potential (dipole corrections)
   IDIPOL     =      0    1-x, 2-y, 3-z, 4-all directions 
   EPSILON    =  1.0000000 bulk dielectric constant
   LVACPOTAV  =      F  vacuum potentials using an averaging scheme for the charge density
   VACPOTFLAT =  0.1000000 required flatness to determine vacuum potential
 Exchange correlation treatment:
   GGA     = PE    functional components
   XC_C    = 1    coefficients multiplying the functional components
   LIBXC   =     F    Libxc                    
   VOSKOWN =     0    Vosko Wilk Nusair interpolation
   LHFCALC =     F    Hartree Fock is set to
   LHFONE  =     F    Hartree Fock one center treatment
   AEXX    =    0.0000 exact exchange contribution

 Parameters of functionals:
   PE:
     No parameter
 
 Van der Waals corrections
   IVDW    =     0    specifies the selected vdW correction

 Linear response parameters
   LEPSILON=     F    determine dielectric tensor
   LRPA    =     F    only Hartree local field effects (RPA)
   LNABLA  =     F    use nabla operator in PAW spheres
   LVEL    =     F    velocity operator in full k-point grid
   CSHIFT  =0.1000    complex shift for real part using Kramers Kronig
   OMEGAMAX=  -1.0    maximum frequency
   DEG_THRESHOLD= 0.2000000E-02 threshold for treating states as degnerate
   RTIME   =   -0.100 relaxation time in fs
  (WPLASMAI=    0.000 imaginary part of plasma frequency in eV, 0.658/RTIME)
   DFIELD  = 0.0000000 0.0000000 0.0000000 field for delta impulse in time
 
  Optional k-point grid parameters
   LKPOINTS_OPT  =     F    use optional k-point grid
   KPOINTS_OPT_MODE=     1    mode for optional k-point grid
 
 Orbital magnetization related:
   ORBITALMAG=     F  switch on orbital magnetization
   LCHIMAG   =     F  perturbation theory with respect to B field
   DQ        =  0.001000  dq finite difference perturbation B field
   LLRAUG    =     F  two centre corrections for induced B field
   LBONE     =     F  B-component reconstruction in AE one-centre
   LVGVCALC  =     T  calculate vGv susceptibility
   LVGVAPPL  =     F  apply vGv susceptibility instead of pGv for G=0

 Random number generation:
   RANDOM_GENERATOR = DEFAULT
   PCG_SEED         = not used


--------------------------------------------------------------------------------------------------------


 conjugate gradient relaxation of ions
 charge density and potential will be updated during run
 non-spin polarized calculation
 RMM-DIIS sequential band-by-band and
  variant of blocked Davidson during initial phase
 perform sub-space diagonalisation
    before iterative eigenvector-optimisation
 modified Broyden-mixing scheme, WC =      100.0
 initial mixing is a Kerker type mixing with AMIX =  0.4000 and BMIX =      1.0000
 Hartree-type preconditioning will be used
 using additional bands           51
 reciprocal scheme for non local part
 use partial core corrections
 calculate Harris-corrections to forces 
   (improved forces if not selfconsistent)
 use gradient corrections 
 use of overlap-Matrix (Vanderbilt PP)
 Gauss-broadening in eV      SIGMA  =   0.10


--------------------------------------------------------------------------------------------------------


  energy-cutoff  :      400.00
  volume of cell :      707.49
      direct lattice vectors                 reciprocal lattice vectors
     8.870673023 -0.000461758 -0.004413994     0.112731046  0.000006990  0.000055777
    -0.000553967  8.982580119 -0.006101031     0.000005833  0.111326641  0.000076948
    -0.004392719 -0.006136818  8.878929188     0.000056046  0.000076500  0.112626274

  length of vectors
     8.870674133  8.982582208  8.878932396     0.112731060  0.111326668  0.112626314


 
 k-points in units of 2pi/SCALE and weight: HECN                                    
   0.00000000  0.00000000  0.00000000       0.037
   0.03757702  0.00000233  0.00001859       0.074
   0.00000194  0.03710888  0.00002565       0.074
   0.03757896  0.03711121  0.00004424       0.074
  -0.03757507  0.03710655  0.00000706       0.074
   0.00001868  0.00002550  0.03754209       0.074
   0.03759570  0.00002783  0.03756068       0.074
  -0.03755833  0.00002317  0.03752350       0.074
   0.00002063  0.03713438  0.03756774       0.074
   0.03759764  0.03713671  0.03758633       0.074
  -0.03755639  0.03713205  0.03754915       0.074
   0.00001674 -0.03708338  0.03751644       0.074
   0.03759375 -0.03708105  0.03753503       0.074
  -0.03756028 -0.03708571  0.03749785       0.074
 
 k-points in reciprocal lattice and weights: HECN                                    
   0.00000000  0.00000000  0.00000000       0.037
   0.33333333 -0.00000000  0.00000000       0.074
   0.00000000  0.33333333  0.00000000       0.074
   0.33333333  0.33333333 -0.00000000       0.074
  -0.33333333  0.33333333  0.00000000       0.074
  -0.00000000  0.00000000  0.33333333       0.074
   0.33333333 -0.00000000  0.33333333       0.074
  -0.33333333  0.00000000  0.33333333       0.074
  -0.00000000  0.33333333  0.33333333       0.074
   0.33333333  0.33333333  0.33333333       0.074
  -0.33333333  0.33333333  0.33333333       0.074
  -0.00000000 -0.33333333  0.33333333       0.074
   0.33333333 -0.33333333  0.33333333       0.074
  -0.33333333 -0.33333333  0.33333333       0.074
 
 position of ions in fractional coordinates (direct lattice) 
   0.99973119  0.99390292  0.01421129
   0.24225773  0.99289002  0.25293223
   0.25966944  0.50581670  0.25219428
   0.50104691  0.50141403  0.00159746
   0.49790066  0.26342318  0.74789096
   0.99907893  0.50302718  0.48974699
   0.50459057  0.73750380  0.74508917
   0.99886629  0.24052917  0.26155951
   0.75326266  0.74067534  0.00365061
   0.00126532  0.26504133  0.73903079
   0.75152926  0.27326720  0.50557882
   0.99461156  0.73675475  0.74136244
   0.25766325  0.50119853  0.74811957
   0.24779675  0.25285728  0.00138227
   0.50282203  0.25568017  0.25174648
   0.75607244  0.99167263  0.25726303
   0.75082597  0.25678062  0.99390080
   0.24746579  0.74848500  0.00109372
   0.25040250  0.25384293  0.49814375
   0.24816747  0.24957646  0.24977051
   0.24396950  0.00041800  0.00589038
   0.99930462  0.24272929  0.00252741
   0.75295171  0.25070816  0.25353413
   0.75576932  0.00023718  0.00181534
   0.50127950  0.00487330  0.24901442
   0.00065577  0.48991316  0.25780067
   0.50244469  0.74621117  0.99440103
   0.99731233  0.00226052  0.75213563
   0.74788383  0.25326963  0.74709921
   0.75531007  0.01399645  0.49857628
   0.50506528  0.25362127  0.50246276
   0.50340822  0.00002905  0.75013293
   0.00359317  0.99742215  0.25155247
   0.50089837  0.25341847  0.99690232
   0.24064943  0.74862418  0.24833494
   0.25474064  0.50020190  0.00335952
   0.99561948  0.75581936  0.00277644
   0.75861637  0.74009659  0.25418114
   0.74396678  0.50241395  0.00227257
   0.50228089  0.49943172  0.25234643
   0.25147881  0.25420759  0.74992427
   0.24209734  0.00201056  0.49279425
   0.99708294  0.24973642  0.50006550
   0.24955082  0.74558307  0.75158097
   0.25280731  0.49848815  0.49632000
   0.98862280  0.75238902  0.49468378
   0.99554749  0.50019139  0.74348403
   0.74720516  0.73972156  0.74739531
   0.74949076  0.50646196  0.49776768
   0.50914582  0.74031395  0.50655810
   0.50501499  0.50022611  0.74728347
   0.49964883  0.00087051  0.99764531
   0.99925318  0.50264838  0.01024695
   0.50163601  0.74602098  0.25307399
   0.24210877  0.99890035  0.74803621
   0.49742836  0.99246255  0.50149287
   0.75673952  0.98907742  0.74185712
   0.24571729  0.74596740  0.49845662
   0.99846975  0.76878059  0.25951542
   0.73519574  0.51072598  0.24613977
   0.00787884  0.99638603  0.48242723
   0.50657165  0.50797901  0.49792373
   0.73939789  0.50726014  0.75656358
   0.75116391  0.72355683  0.49538385
 
 position of ions in cartesian coordinates  (Angst):
   8.86767550  8.92726379  0.11570438
   2.14732803  8.91705005  2.23864039
   2.30205469  4.54187150  2.23498294
   4.44433851  4.50375056  0.00891298
   4.41328273  2.36140026  6.63666599
   8.86007250  4.51501510  4.34094996
   4.47237647  6.61988147  6.60886722
   8.85933407  2.15850613  2.31649189
   6.68152041  6.65280533  0.02456971
   0.00783106  2.37621911  6.56017944
   6.66419812  2.45119488  4.48401411
   8.81920920  6.61294969  6.57361941
   2.28208250  4.49734590  6.63830550
   2.19797779  2.27118788  0.00963664
   4.45912233  2.29489050  2.23145984
   6.70519193  8.90585092  2.27483269
   6.65582348  2.30010637  8.81989407
   2.19476862  6.72320546  0.00405218
   2.21890992  2.27699180  4.42032910
   2.20017701  2.24019316  2.21507659
   2.16414754  0.00360590  0.05122084
   8.86435899  2.17985833  0.01654890
   6.67793581  2.25010259  2.24625845
   6.70417439  0.00177034  0.01278086
   4.44558999  0.04201519  2.20873903
   0.00441330  4.39910182  2.28600202
   4.45224106  6.69656717  8.82244588
   8.84352642  0.01522903  6.67374309
   6.63081085  2.27008456  6.62859463
   6.69791077  0.12231579  4.42340415
   4.47792124  2.27485667  4.45755452
   4.46227457 -0.00457494  6.65815493
   0.03021633  8.95787901  2.22741540
   4.43878613  2.27000257  8.84766803
   2.13321680  6.72294157  2.19931871
   2.25942905  4.49296538  0.02565274
   8.83138397  6.78873116  0.01564584
   6.72791126  6.64606675  2.24899245
   6.59919773  4.51261612  0.01382890
   4.45418442  4.48440491  2.23530193
   2.22735130  2.27872175  6.65586353
   2.14540049  0.01492406  4.37440438
   8.84246179  2.23974815  4.43412137
   2.20996919  6.69253212  6.66758389
   2.24011464  4.47454718  4.40263297
   8.76715983  6.75490233  4.38330809
   8.82763329  4.48798689  6.59389602
   6.62451974  6.63967655  6.62825879
   6.64602031  4.54593433  4.41324577
   4.51383085  6.64658563  4.49092945
   4.47626314  4.48850201  6.62979600
   4.42783855  0.00146638  8.85581129
   8.86372479  4.51455502  0.08350454
   4.44832403  6.69940856  2.24026028
   2.14382843  8.96800007  6.63459757
   4.40977164  8.91156715  4.44446902
   6.70898216  8.87956506  6.57752217
   2.17707495  6.69753950  4.42012525
   8.85553278  6.90357961  2.29512140
   6.52031685  4.58578702  2.17909652
   0.06721952  8.94715316  4.27732345
   4.49116286  4.55967258  4.41569438
   6.55535252  4.55152052  6.71111593
   6.66075254  6.49602022  4.39074803
 


--------------------------------------------------------------------------------------------------------


 k-point     1 :   0.0000 0.0000 0.0000  plane waves:   12959
 k-point     2 :   0.3333-0.0000 0.0000  plane waves:   12849
 k-point     3 :   0.0000 0.3333 0.0000  plane waves:   12863
 k-point     4 :   0.3333 0.3333-0.0000  plane waves:   12849
 k-point     5 :  -0.3333 0.3333 0.0000  plane waves:   12848
 k-point     6 :  -0.0000 0.0000 0.3333  plane waves:   12854
 k-point     7 :   0.3333-0.0000 0.3333  plane waves:   12848
 k-point     8 :  -0.3333 0.0000 0.3333  plane waves:   12843
 k-point     9 :  -0.0000 0.3333 0.3333  plane waves:   12852
 k-point    10 :   0.3333 0.3333 0.3333  plane waves:   12844
 k-point    11 :  -0.3333 0.3333 0.3333  plane waves:   12843
 k-point    12 :  -0.0000-0.3333 0.3333  plane waves:   12850
 k-point    13 :   0.3333-0.3333 0.3333  plane waves:   12849
 k-point    14 :  -0.3333-0.3333 0.3333  plane waves:   12848

 maximum and minimum number of plane-waves per node :     12959    12843

 maximum number of plane-waves:     12959
 maximum index in each direction: 
   IXMAX=   14   IYMAX=   14   IZMAX=   14
   IXMIN=  -14   IYMIN=  -14   IZMIN=  -14


 serial   3D FFT for wavefunctions
 parallel 3D FFT for charge:
    minimum data exchange during FFTs selected (reduces bandwidth)


 total amount of memory used by VASP MPI-rank0   270971. kBytes
=======================================================================

   base      :      30000. kBytes
   nonl-proj :     196223. kBytes
   fftplans  :       1680. kBytes
   grid      :       8060. kBytes
   one-center:        995. kBytes
   wavefun   :      34013. kBytes
 
     INWAV:  cpu time      0.0000: real time      0.0003
 Broyden mixing: mesh for mixing (old mesh)
   NGX = 29   NGY = 29   NGZ = 29
  (NGX  = 96   NGY  = 96   NGZ  = 96)
  gives a total of  24389 points

 initial charge density was supplied:
 charge density of overlapping atoms calculated
 number of electron     513.0000000 magnetization 
 keeping initial charge density in first step


--------------------------------------------------------------------------------------------------------


 Maximum index for augmentation-charges          624 (set IRDMAX)


--------------------------------------------------------------------------------------------------------


 First call to EWALD:  gamma=   0.199
 Maximum number of real-space cells 3x 3x 3
 Maximum number of reciprocal cells 3x 3x 3

    FEWALD:  cpu time      0.0021: real time      0.0021


--------------------------------------- Ionic step        1  -------------------------------------------




--------------------------------------- Iteration      1(   1)  ---------------------------------------


    POTLOK:  cpu time      0.0240: real time      0.0310
    SETDIJ:  cpu time      0.0156: real time      0.0199
     EDDAV:  cpu time     19.4590: real time     19.5529
       DOS:  cpu time      0.0016: real time      0.0043
    --------------------------------------------
      LOOP:  cpu time     19.5002: real time     19.6081

 eigenvalue-minimisations  :  8624
 total energy-change (2. order) : 0.5555046E+04  (-0.2256619E+05)
 number of electron     513.0000000 magnetization 
 augmentation part      513.0000000 magnetization 

 Free energy of the ion-electron system (eV)
  ---------------------------------------------------
  alpha Z        PSCENC =      4620.09947985
  Ewald energy   TEWEN  =    -42290.25684543
  -Hartree energ DENC   =     -8889.75998097
  -exchange      EXHF   =         0.00000000
  -V(xc)+E(xc)   XCENC  =      2015.80355374
  PAW double counting   =     31238.36501478   -30928.94206714
  entropy T*S    EENTRO =        -0.08644867
  eigenvalues    EBANDS =       319.41266263
  atomic energy  EATOM  =     49470.41096438
  Solvation  Ediel_sol  =         0.00000000
  ---------------------------------------------------
  free energy    TOTEN  =      5555.04633316 eV

  energy without entropy =     5555.13278183  energy(sigma->0) =     5555.08955750


--------------------------------------------------------------------------------------------------------




--------------------------------------- Iteration      1(   2)  ---------------------------------------


     EDDAV:  cpu time     19.3916: real time     19.8785
       DOS:  cpu time      0.0009: real time      0.0009
    --------------------------------------------
      LOOP:  cpu time     19.3924: real time     19.8794

 eigenvalue-minimisations  :  8624
 total energy-change (2. order) :-0.5452921E+04  (-0.5295648E+04)
 number of electron     513.0000000 magnetization 
 augmentation part      513.0000000 magnetization 

 Free energy of the ion-electron system (eV)
  ---------------------------------------------------
  alpha Z        PSCENC =      4620.09947985
  Ewald energy   TEWEN  =    -42290.25684543
  -Hartree energ DENC   =     -8889.75998097
  -exchange      EXHF   =         0.00000000
  -V(xc)+E(xc)   XCENC  =      2015.80355374
  PAW double counting   =     31238.36501478   -30928.94206714
  entropy T*S    EENTRO =        -0.12983863
  eigenvalues    EBANDS =     -5133.46475810
  atomic energy  EATOM  =     49470.41096438
  Solvation  Ediel_sol  =         0.00000000
  ---------------------------------------------------
  free energy    TOTEN  =       102.12552246 eV

  energy without entropy =      102.25536110  energy(sigma->0) =      102.19044178


--------------------------------------------------------------------------------------------------------




--------------------------------------- Iteration      1(   3)  ---------------------------------------


     EDDAV:  cpu time     25.9017: real time     26.1655
       DOS:  cpu time      0.0008: real time      0.0008
    --------------------------------------------
      LOOP:  cpu time     25.9025: real time     26.1663

 eigenvalue-minimisations  : 11956
 total energy-change (2. order) :-0.8183753E+03  (-0.7898359E+03)
 number of electron     513.0000000 magnetization 
 augmentation part      513.0000000 magnetization 

 Free energy of the ion-electron system (eV)
  ---------------------------------------------------
  alpha Z        PSCENC =      4620.09947985
  Ewald energy   TEWEN  =    -42290.25684543
  -Hartree energ DENC   =     -8889.75998097
  -exchange      EXHF   =         0.00000000
  -V(xc)+E(xc)   XCENC  =      2015.80355374
  PAW double counting   =     31238.36501478   -30928.94206714
  entropy T*S    EENTRO =        -0.06457875
  eigenvalues    EBANDS =     -5951.90531217
  atomic energy  EATOM  =     49470.41096438
  Solvation  Ediel_sol  =         0.00000000
  ---------------------------------------------------
  free energy    TOTEN  =      -716.24977173 eV

  energy without entropy =     -716.18519298  energy(sigma->0) =     -716.21748235


--------------------------------------------------------------------------------------------------------




--------------------------------------- Iteration      1(   4)  ---------------------------------------


     EDDAV:  cpu time     30.1300: real time     30.4365
       DOS:  cpu time      0.0008: real time      0.0008
    --------------------------------------------
      LOOP:  cpu time     30.1308: real time     30.4373

 eigenvalue-minimisations  : 14532
 total energy-change (2. order) :-0.7585474E+02  (-0.7490242E+02)
 number of electron     513.0000000 magnetization 
 augmentation part      513.0000000 magnetization 

 Free energy of the ion-electron system (eV)
  ---------------------------------------------------
  alpha Z        PSCENC =      4620.09947985
  Ewald energy   TEWEN  =    -42290.25684543
  -Hartree energ DENC   =     -8889.75998097
  -exchange      EXHF   =         0.00000000
  -V(xc)+E(xc)   XCENC  =      2015.80355374
  PAW double counting   =     31238.36501478   -30928.94206714
  entropy T*S    EENTRO =        -0.10403382
  eigenvalues    EBANDS =     -6027.72060084
  atomic energy  EATOM  =     49470.41096438
  Solvation  Ediel_sol  =         0.00000000
  ---------------------------------------------------
  free energy    TOTEN  =      -792.10451546 eV

  energy without entropy =     -792.00048164  energy(sigma->0) =     -792.05249855


--------------------------------------------------------------------------------------------------------




--------------------------------------- Iteration      1(   5)  ---------------------------------------


     EDDAV:  cpu time     30.7710: real time     31.0441
       DOS:  cpu time      0.0008: real time      0.0008
    CHARGE:  cpu time      0.1736: real time      0.1774
    MIXING:  cpu time      0.0034: real time      0.0068
    --------------------------------------------
      LOOP:  cpu time     30.9489: real time     31.2291

 eigenvalue-minimisations  : 14896
 total energy-change (2. order) :-0.4289673E+01  (-0.4266494E+01)
 number of electron     513.0000026 magnetization 
 augmentation part      104.9331094 magnetization 

 Broyden mixing:
  rms(total) = 0.68333E+01    rms(broyden)= 0.68321E+01
  rms(prec ) = 0.10657E+02
  weight for this iteration     100.00

 Free energy of the ion-electron system (eV)
  ---------------------------------------------------
  alpha Z        PSCENC =      4620.09947985
  Ewald energy   TEWEN  =    -42290.25684543
  -Hartree energ DENC   =     -8889.75998097
  -exchange      EXHF   =         0.00000000
  -V(xc)+E(xc)   XCENC  =      2015.80355374
  PAW double counting   =     31238.36501478   -30928.94206714
  entropy T*S    EENTRO =        -0.10976265
  eigenvalues    EBANDS =     -6032.00454486
  atomic energy  EATOM  =     49470.41096438
  Solvation  Ediel_sol  =         0.00000000
  ---------------------------------------------------
  free energy    TOTEN  =      -796.39418831 eV

  energy without entropy =     -796.28442566  energy(sigma->0) =     -796.33930699


--------------------------------------------------------------------------------------------------------




--------------------------------------- Iteration      1(   6)  ---------------------------------------


    POTLOK:  cpu time      0.0194: real time      0.0196
    SETDIJ:  cpu time      0.0053: real time      0.0053
    EDDIAG:  cpu time      1.3767: real time      1.3854
  RMM-DIIS:  cpu time     17.1631: real time     17.2233
    ORTHCH:  cpu time      0.3403: real time      0.3406
       DOS:  cpu time      0.0010: real time      0.0010
    CHARGE:  cpu time      0.1714: real time      0.1715
    MIXING:  cpu time      0.0016: real time      0.0021
    --------------------------------------------
      LOOP:  cpu time     19.0789: real time     19.1488

 eigenvalue-minimisations  : 11997
 total energy-change (2. order) : 0.9288800E+02  (-0.1287982E+03)
 number of electron     513.0000031 magnetization 
 augmentation part      125.4437952 magnetization 

 Broyden mixing:
  rms(total) = 0.62658E+01    rms(broyden)= 0.62628E+01
  rms(prec ) = 0.10441E+02
  weight for this iteration     100.00

 eigenvalues of (default mixing * dielectric matrix)
  average eigenvalue GAMMA=   0.5273
  0.5273

 Free energy of the ion-electron system (eV)
  ---------------------------------------------------
  alpha Z        PSCENC =      4620.09947985
  Ewald energy   TEWEN  =    -42290.25684543
  -Hartree energ DENC   =     -8180.60726198
  -exchange      EXHF   =         0.00000000
  -V(xc)+E(xc)   XCENC  =      2002.53412986
  PAW double counting   =     30272.72071682   -30021.54756405
  entropy T*S    EENTRO =        -0.11048199
  eigenvalues    EBANDS =     -6576.74932657
  atomic energy  EATOM  =     49470.41096438
  Solvation  Ediel_sol  =         0.00000000
  ---------------------------------------------------
  free energy    TOTEN  =      -703.50618911 eV

  energy without entropy =     -703.39570713  energy(sigma->0) =     -703.45094812


--------------------------------------------------------------------------------------------------------




--------------------------------------- Iteration      1(   7)  ---------------------------------------


    POTLOK:  cpu time      0.0172: real time      0.0174
    SETDIJ:  cpu time      0.0052: real time      0.0052
    EDDIAG:  cpu time      1.5421: real time      1.5506
  RMM-DIIS:  cpu time     17.1979: real time     17.3153
    ORTHCH:  cpu time      0.3337: real time      0.3338
       DOS:  cpu time      0.0008: real time      0.0008
    CHARGE:  cpu time      0.1708: real time      0.1709
    MIXING:  cpu time      0.0009: real time      0.0009
    --------------------------------------------
      LOOP:  cpu time     19.2686: real time     19.3950

 eigenvalue-minimisations  : 11897
 total energy-change (2. order) : 0.3725553E+02  (-0.2826814E+02)
 number of electron     513.0000032 magnetization 
 augmentation part      111.2175497 magnetization 

 Broyden mixing:
  rms(total) = 0.34455E+01    rms(broyden)= 0.34409E+01
  rms(prec ) = 0.60869E+01
  weight for this iteration     100.00

 eigenvalues of (default mixing * dielectric matrix)
  average eigenvalue GAMMA=   0.5729
  0.8109  0.3348

 Free energy of the ion-electron system (eV)
  ---------------------------------------------------
  alpha Z        PSCENC =      4620.09947985
  Ewald energy   TEWEN  =    -42290.25684543
  -Hartree energ DENC   =     -8481.08555904
  -exchange      EXHF   =         0.00000000
[...]
  0.004  -0.010   0.003  -0.007  -0.000  -0.005  -0.000  -0.000   0.001  -0.211  -0.002   0.000   0.005  -0.000   0.178   0.002
 -0.004   0.001  -0.006  -0.030  -0.000  -0.018  -0.081   0.000   0.001  -0.002  -0.499   0.000  -0.004  -0.003   0.002   0.526
  0.001   0.001  -0.000   0.001   0.005  -0.000  -0.000   0.001  -0.001   0.000   0.000  -0.213   0.000   0.001   0.000   0.002
  0.004  -0.004  -0.010   0.000   0.001  -0.032   0.002   0.001   0.002   0.005  -0.004   0.000  -0.506  -0.004  -0.006  -0.012


------------------------ aborting loop because EDIFF is reached ----------------------------------------


    CHARGE:  cpu time      0.1703: real time      0.1704
    FORLOC:  cpu time      0.0076: real time      0.0076
    FORNL :  cpu time      6.2019: real time      6.2687
    STRESS:  cpu time     25.0906: real time     25.4047
    FORCOR:  cpu time      0.0196: real time      0.0196
    FORHAR:  cpu time      0.0105: real time      0.0105
    MIXING:  cpu time      0.0010: real time      0.0010
    OFIELD:  cpu time      0.0001: real time      0.0001

  FORCE on cell =-STRESS in cart. coord.  units (eV):
  Direction    XX          YY          ZZ          XY          YZ          ZX
  --------------------------------------------------------------------------------------
  Alpha Z  4619.58967  4619.58967  4619.58967
  Ewald  -13944.85176-14429.63283-13914.37826    47.84464   -20.30558   -27.20861
  Hartree  2857.82626  2588.87477  2896.13491    46.56709   -16.39841   -35.89463
  E(xc)   -2323.47377 -2324.44573 -2323.64345     0.03557    -0.09855     0.04830
  Local    2901.98200  3641.33509  2834.39607   -92.66609    37.64935    61.63317
  n-local -2433.63174 -2438.03609 -2439.23396    -1.25374    -0.70421     0.20176
  augment   851.55129   853.17763   851.76905    -0.36545    -0.36685     0.61280
  Kinetic  7470.94785  7488.99187  7475.34078    -0.14519     0.22359     0.58438
  Fock        0.00000     0.00000     0.00000     0.00000     0.00000     0.00000
  -------------------------------------------------------------------------------------
  Total      -0.06019    -0.14561    -0.02519     0.01684    -0.00065    -0.02283
  in kB      -0.13628    -0.32971    -0.05704     0.03812    -0.00147    -0.05169
  external pressure =       -0.17 kB  Pullay stress =        0.00 kB


 VOLUME and BASIS-vectors are now :
 -----------------------------------------------------------------------------
  energy-cutoff  :      400.00
  volume of cell :      707.56
      direct lattice vectors                 reciprocal lattice vectors
     8.870071387 -0.001515974 -0.003754309     0.112738688  0.000020384  0.000047408
    -0.001621978  8.985418295 -0.006330126     0.000019054  0.111291484  0.000079806
    -0.003732028 -0.006365458  8.877706264     0.000047690  0.000079363  0.112641785

  length of vectors
     8.870072311  8.985420671  8.877709330     0.112738700  0.111291514  0.112641823


 FORCES acting on ions
    electron-ion (+dipol)            ewald-force                    non-local-force                 convergence-correction
 -----------------------------------------------------------------------------------------------
   0.691E+01 -.599E+02 0.118E+03   -.676E+01 0.586E+02 -.118E+03   -.147E+00 0.137E+01 -.887E+00   -.612E-02 -.135E-01 0.142E-01
   -.137E+03 -.813E+02 0.501E+02   0.136E+03 0.794E+02 -.488E+02   0.928E+00 0.192E+01 -.127E+01   0.561E-02 -.180E-01 -.447E-01
   0.306E+02 0.691E+02 0.724E+02   -.298E+02 -.671E+02 -.722E+02   -.794E+00 -.200E+01 -.190E+00   0.410E-03 0.119E-01 -.777E-02
   0.996E+02 0.831E+02 -.158E+00   -.100E+03 -.842E+02 0.383E+00   0.463E+00 0.112E+01 -.269E+00   0.767E-02 0.420E-02 0.448E-01
   0.809E+02 0.118E+03 -.698E+02   -.822E+02 -.116E+03 0.710E+02   0.132E+01 -.156E+01 -.119E+01   -.694E-02 -.206E-01 0.762E-02
   -.113E+03 0.843E+02 -.834E+02   0.113E+03 -.834E+02 0.825E+02   -.192E+00 -.835E+00 0.958E+00   0.501E-02 0.799E-02 -.569E-01
   0.113E+03 -.124E+03 -.743E+02   -.113E+03 0.123E+03 0.731E+02   -.391E-01 0.151E+01 0.120E+01   -.187E-01 0.242E-01 0.680E-02
   -.672E+01 -.229E+02 0.696E+02   0.687E+01 0.227E+02 -.680E+02   -.136E+00 0.155E+00 -.154E+01   -.150E-01 0.311E-01 -.400E-01
   -.195E+02 -.930E+02 0.321E+02   0.208E+02 0.912E+02 -.319E+02   -.131E+01 0.179E+01 -.328E+00   0.154E-01 0.731E-02 0.626E-01
   -.670E+02 0.405E+02 -.728E+02   0.686E+02 -.389E+02 0.710E+02   -.163E+01 -.164E+01 0.174E+01   0.117E-01 -.469E-02 0.292E-01
   -.168E+02 0.122E+03 0.236E+02   0.175E+02 -.121E+03 -.234E+02   -.741E+00 -.128E+01 -.182E+00   -.191E-01 0.126E-01 -.423E-01
   -.920E+02 -.373E+02 -.993E+02   0.921E+02 0.356E+02 0.986E+02   -.152E+00 0.163E+01 0.619E+00   0.149E-01 0.720E-02 0.330E-01
   0.890E+02 0.338E+02 -.628E+02   -.883E+02 -.335E+02 0.627E+02   -.677E+00 -.337E+00 0.128E+00   -.921E-03 -.142E-02 0.947E-02
   -.119E+02 -.506E+01 0.381E+02   0.133E+02 0.651E+01 -.388E+02   -.139E+01 -.144E+01 0.699E+00   -.475E-02 -.612E-02 0.950E-02
   0.230E+02 0.818E+02 0.581E+02   -.231E+02 -.804E+02 -.595E+02   0.944E-01 -.146E+01 0.139E+01   0.173E-01 0.167E-01 -.708E-02
   0.918E+02 -.817E+02 0.606E+02   -.906E+02 0.803E+02 -.596E+02   -.116E+01 0.145E+01 -.897E+00   -.581E-02 -.136E-01 -.364E-01
   0.261E-01 0.689E+02 -.287E+02   -.154E+01 -.672E+02 0.284E+02   0.151E+01 -.175E+01 0.263E+00   0.408E-02 -.645E-02 0.371E-01
   0.132E+02 0.111E+02 0.612E+02   -.145E+02 -.127E+02 -.608E+02   0.132E+01 0.164E+01 -.478E+00   -.149E-01 0.727E-02 0.209E-01
   -.400E+01 0.213E+02 -.390E+02   0.313E+01 -.207E+02 0.399E+02   0.840E+00 -.573E+00 -.896E+00   0.202E-01 0.170E-01 -.906E-02
   -.252E+02 0.775E+00 0.209E+02   0.264E+02 -.402E+00 -.211E+02   -.116E+01 -.376E+00 0.117E+00   0.229E-02 0.329E-02 -.877E-02
   -.296E+02 -.210E+02 0.381E+02   0.292E+02 0.210E+02 -.378E+02   0.440E+00 -.210E-01 -.317E+00   -.115E-01 -.380E-02 0.568E-02
   -.823E+01 -.103E+02 0.258E+02   0.828E+01 0.948E+01 -.265E+02   -.488E-01 0.868E+00 0.700E+00   -.138E-02 -.975E-02 0.954E-02
   0.184E+02 0.502E+02 0.398E+02   -.194E+02 -.493E+02 -.413E+02   0.982E+00 -.961E+00 0.147E+01   -.431E-02 0.290E-01 -.880E-02
   0.274E+02 -.330E+02 -.134E+01   -.269E+02 0.338E+02 0.105E+01   -.441E+00 -.808E+00 0.287E+00   0.114E-01 -.332E-02 0.910E-02
   -.144E+02 -.398E+02 0.169E+02   0.132E+02 0.395E+02 -.168E+02   0.116E+01 0.302E+00 -.518E-01   0.308E-02 -.269E-02 -.616E-02
   -.257E+02 0.288E+02 0.526E+02   0.258E+02 -.262E+02 -.523E+02   -.867E-01 -.254E+01 -.338E+00   -.230E-01 0.124E-01 -.100E-01
   0.331E+02 -.448E+02 -.362E+01   -.345E+02 0.441E+02 0.299E+01   0.134E+01 0.751E+00 0.611E+00   0.283E-02 0.236E-02 0.162E-01
   -.158E+02 -.207E+02 -.247E+02   0.160E+02 0.209E+02 0.250E+02   -.231E+00 -.209E+00 -.377E+00   -.558E-03 -.211E-02 0.410E-01
   -.268E+02 0.605E+02 -.380E+02   0.247E+02 -.610E+02 0.396E+02   0.216E+01 0.523E+00 -.165E+01   -.604E-02 -.180E-01 0.659E-02
   0.304E+02 -.306E+02 0.440E+01   -.299E+02 0.287E+02 -.420E+01   -.462E+00 0.181E+01 -.189E+00   -.288E-01 0.378E-02 -.674E-02
   0.339E+02 0.596E+02 0.278E+02   -.355E+02 -.599E+02 -.269E+02   0.156E+01 0.266E+00 -.908E+00   0.602E-03 0.306E-02 -.716E-02
   0.205E+02 -.232E+02 -.171E+02   -.209E+02 0.233E+02 0.170E+02   0.337E+00 -.112E+00 0.120E+00   -.875E-03 0.461E-02 0.605E-02
   0.260E+02 -.623E+02 0.409E+02   -.256E+02 0.616E+02 -.413E+02   -.385E+00 0.708E+00 0.477E+00   -.233E-02 -.168E-01 -.407E-01
   0.122E+02 0.288E+02 -.218E+02   -.124E+02 -.284E+02 0.215E+02   0.151E+00 -.413E+00 0.220E+00   0.110E-02 -.200E-02 0.559E-02
   -.309E+02 0.719E+01 0.362E+02   0.310E+02 -.773E+01 -.358E+02   -.109E+00 0.542E+00 -.314E+00   -.970E-02 -.170E-02 -.680E-02
   0.238E+02 0.135E+02 0.265E+02   -.237E+02 -.134E+02 -.255E+02   -.969E-01 -.132E+00 -.978E+00   -.371E-02 0.206E-02 0.578E-02
   -.280E+02 0.163E+02 0.455E+02   0.289E+02 -.163E+02 -.450E+02   -.919E+00 0.119E-01 -.508E+00   -.114E-02 0.899E-02 0.202E-01
   0.194E+02 -.637E+02 0.475E+02   -.193E+02 0.635E+02 -.467E+02   -.151E+00 0.320E+00 -.792E+00   0.780E-02 -.249E-01 -.102E-01
   -.296E+02 0.384E+02 0.437E+01   0.295E+02 -.393E+02 -.435E+01   0.104E+00 0.910E+00 -.735E-01   0.280E-02 0.239E-02 0.483E-01
   0.441E+02 0.440E+02 0.319E+02   -.447E+02 -.438E+02 -.323E+02   0.624E+00 -.239E+00 0.436E+00   0.255E-01 0.293E-02 -.218E-02
   0.202E+02 0.117E+02 -.157E+02   -.190E+02 -.126E+02 0.157E+02   -.120E+01 0.849E+00 0.750E-03   0.440E-02 0.503E-03 0.642E-02
   -.481E+02 -.337E+02 -.385E+02   0.484E+02 0.334E+02 0.385E+02   -.379E+00 0.305E+00 0.118E-01   0.259E-01 -.208E-02 -.386E-02
   -.226E+02 0.640E+01 -.210E+02   0.234E+02 -.644E+01 0.213E+02   -.879E+00 0.206E-01 -.311E+00   -.166E-02 0.211E-01 -.729E-02
   0.181E+02 -.100E+02 -.315E+02   -.171E+02 0.108E+02 0.312E+02   -.100E+01 -.794E+00 0.235E+00   -.692E-03 -.402E-03 0.655E-02
   0.168E+02 0.333E+02 -.282E+02   -.174E+02 -.330E+02 0.272E+02   0.565E+00 -.267E+00 0.997E+00   0.182E-02 0.200E-02 -.630E-02
   -.342E+02 -.193E+01 -.577E+02   0.344E+02 0.168E+01 0.571E+02   -.199E+00 0.271E+00 0.543E+00   -.556E-04 -.220E-01 -.214E-01
   -.463E+02 0.141E+02 -.358E+02   0.457E+02 -.139E+02 0.354E+02   0.643E+00 -.172E+00 0.385E+00   0.168E-01 0.803E-03 0.542E-02
   -.268E+02 -.602E+02 -.394E+02   0.256E+02 0.603E+02 0.387E+02   0.113E+01 -.145E+00 0.694E+00   0.177E-02 0.186E-01 0.837E-02
   -.314E+02 0.694E+02 -.111E+02   0.322E+02 -.684E+02 0.112E+02   -.787E+00 -.948E+00 -.247E-01   -.192E-02 -.555E-03 -.446E-01
   0.463E+02 -.677E+02 0.549E+01   -.468E+02 0.681E+02 -.536E+01   0.506E+00 -.403E+00 -.121E+00   -.306E-02 -.163E-02 -.129E-01
   0.612E+02 0.210E+02 -.299E+02   -.605E+02 -.209E+02 0.303E+02   -.608E+00 -.102E+00 -.353E+00   -.195E-01 -.579E-02 -.207E-03
   0.220E+01 -.653E+02 -.110E+02   -.225E+01 0.668E+02 0.106E+02   0.409E-01 -.158E+01 0.420E+00   0.314E-02 -.237E-02 0.136E-01
   -.809E+02 0.441E+02 0.786E+02   0.814E+02 -.421E+02 -.779E+02   -.467E+00 -.194E+01 -.772E+00   -.605E-02 0.134E-01 0.555E-01
   0.634E+02 -.121E+03 0.693E+02   -.639E+02 0.119E+03 -.676E+02   0.467E+00 0.208E+01 -.166E+01   0.215E-01 -.190E-01 -.130E-01
   -.187E+02 -.379E+02 -.361E+02   0.179E+02 0.375E+02 0.344E+02   0.780E+00 0.389E+00 0.165E+01   0.143E-01 -.409E-03 0.387E-01
   0.247E+02 -.691E+02 0.892E+01   -.261E+02 0.673E+02 -.845E+01   0.142E+01 0.188E+01 -.452E+00   0.241E-02 0.284E-02 -.133E-01
   0.444E+01 -.563E+02 -.681E+02   -.364E+01 0.547E+02 0.669E+02   -.780E+00 0.167E+01 0.118E+01   -.147E-01 0.681E-02 0.383E-01
   -.278E+02 -.193E+02 -.806E+02   0.277E+02 0.188E+02 0.800E+02   0.181E-01 0.583E+00 0.655E+00   0.925E-02 -.194E-01 -.252E-01
   -.368E+02 0.875E+02 0.129E+03   0.377E+02 -.862E+02 -.128E+03   -.857E+00 -.124E+01 -.827E+00   -.181E-01 -.291E-01 -.638E-01
   -.606E+02 0.145E+03 0.106E+03   0.590E+02 -.142E+03 -.106E+03   0.165E+01 -.254E+01 0.510E+00   -.166E-02 -.305E-02 0.260E-02
   0.107E+02 -.106E+03 -.160E+03   -.894E+01 0.105E+03 0.159E+03   -.177E+01 0.120E+01 0.155E+01   -.294E-02 -.136E-01 -.292E-01
   0.153E+03 0.110E+03 -.103E+01   -.154E+03 -.108E+03 0.704E+00   0.721E+00 -.254E+01 0.369E+00   -.650E-02 -.568E-02 -.434E-01
   -.118E+03 0.836E+02 -.917E+02   0.117E+03 -.813E+02 0.923E+02   0.120E+01 -.222E+01 -.596E+00   -.485E-02 -.125E-01 -.311E-02
   -.700E+01 -.202E+03 -.473E+02   0.699E+01 0.200E+03 0.468E+02   0.351E-02 0.211E+01 0.660E+00   0.190E-02 -.216E-01 -.907E-01
 -----------------------------------------------------------------------------------------------
   -.311E+01 0.268E+01 -.146E+01   -.444E-13 0.171E-12 0.483E-12   0.311E+01 -.264E+01 0.157E+01   -.434E-02 -.401E-01 -.105E+00
 
 
 POSITION                                       TOTAL-FORCE (eV/Angst)
 -----------------------------------------------------------------------------------
      8.86620      8.92904      0.11633         0.000968     -0.002101     -0.000517
      2.14640      8.91978      2.23826        -0.001108     -0.002308      0.001548
      2.30134      4.54292      2.23457        -0.000800      0.001160      0.001454
      4.44340      4.50451      0.00955         0.000549     -0.000558      0.001067
      4.41284      2.36149      6.63597        -0.000350      0.003713      0.000779
      8.85879      4.51539      4.34082        -0.000503      0.000275      0.000953
      4.47173      6.62115      6.60839         0.000571     -0.003305     -0.000579
      8.85849      2.15789      2.31675         0.000038     -0.000574      0.000760
      6.68041      6.65405      0.02435        -0.000336     -0.002488     -0.004644
      0.00808      2.37682      6.55918         0.000345      0.004297     -0.000717
      6.66366      2.45119      4.48390         0.000679      0.002870      0.001365
      8.81856      6.61382      6.57303        -0.000248     -0.005140     -0.000887
      2.28200      4.49836      6.63738        -0.000402      0.000597     -0.000702
      2.19750      2.27185      0.00971         0.000618      0.001480      0.000217
      4.45865      2.29514      2.23147        -0.000150     -0.001453      0.000058
      6.70377      8.90755      2.27489         0.001061     -0.001374     -0.000302
      6.65581      2.29981      8.81915        -0.000292      0.000594     -0.001230
      2.19367      6.72501      0.00409         0.000735     -0.000803     -0.000092
      2.21864      2.27729      4.41981        -0.000808      0.001565     -0.000329
      2.19997      2.24068      2.21493        -0.000152      0.000907     -0.000683
      2.16390      0.00349      0.05135         0.000224      0.000436     -0.000190
      8.86354      2.17937      0.01731        -0.000196      0.000197      0.000825
      6.67737      2.24956      2.24636        -0.000329     -0.003872      0.000214
      6.70404      0.00082      0.01319         0.000527     -0.000793      0.000131
      4.44527      0.04138      2.20877         0.000166      0.000166     -0.000337
      0.00372      4.40077      2.28554        -0.002918      0.000936     -0.000223
      4.45151      6.69805      8.82144        -0.000311      0.001611      0.000491
      8.84360      0.01417      6.67353         0.000312      0.000710      0.000381
      6.63045      2.26957      6.62814        -0.000603     -0.002170      0.000175
      6.69796      0.12098      4.42327         0.000033     -0.002966      0.000450
      4.47771      2.27473      4.45737        -0.000578     -0.001351     -0.000108
      4.46254     -0.00524      6.65750         0.000567      0.000549      0.000917
      0.02930      8.96078      2.22658        -0.000082     -0.001522      0.002137
      4.43884      2.26993      8.84674        -0.000188     -0.001614     -0.000093
      2.13240      6.72483      2.19902         0.000218      0.000270      0.000444
      2.25886      4.49413      0.02567        -0.000927      0.000835      0.000246
      8.82991      6.78985      0.01615        -0.000116     -0.001353     -0.000646
      6.72681      6.64762      2.24896        -0.001203      0.000908     -0.001151
      6.59822      4.51316      0.01402         0.000241     -0.000029     -0.002074
      4.45383      4.48519      2.23528        -0.000741      0.000018     -0.000198
      2.22743      2.27917      6.65503        -0.000464      0.000475     -0.000382
      2.14538      0.01470      4.37386         0.000465     -0.000720      0.000175
      8.84185      2.23920      4.43406        -0.002222     -0.000560      0.000084
      2.20953      6.69430      6.66675         0.000779     -0.000103     -0.000530
      2.23979      4.47547      4.40205        -0.000729      0.000111     -0.001375
      8.76613      6.75596      4.38311         0.000940      0.000461      0.000911
      8.82703      4.48820      6.59336        -0.000093      0.000008     -0.000553
      6.62372      6.64090      6.62772         0.000638     -0.000991      0.001237
      6.64530      4.54634      4.41315        -0.000605      0.000276      0.002008
      4.51326      6.64824      4.49062         0.000881      0.001581      0.000522
      4.47598      4.48920      6.62905         0.001112     -0.000109      0.001077
      4.42817      0.00084      8.85492        -0.001779      0.001182      0.000367
      8.86259      4.51486      0.08389        -0.000052      0.000946     -0.002866
      4.44744      6.70078      2.24011        -0.000374      0.000411     -0.001144
      2.14298      8.97045      6.63357        -0.001112      0.000993     -0.000536
      4.40887      8.91384      4.44396        -0.000785      0.000068      0.000420
      6.70822      8.88129      6.57684         0.002799     -0.002550     -0.001532
      2.17674      6.69915      4.41951         0.000662     -0.000474      0.000448
      8.85426      6.90418      2.29558        -0.000582      0.006085      0.001718
      6.51980      4.58682      2.17857         0.004184      0.005117     -0.003387
      0.06655      8.94976      4.27637         0.001146     -0.001293     -0.002371
      4.49099      4.56045      4.41466         0.001073      0.001071     -0.001775
      6.55495      4.55224      6.71149        -0.000417      0.004082      0.005135
      6.65953      6.49739      4.39110         0.000023     -0.004385      0.003438
 -----------------------------------------------------------------------------------
    total drift:                               -0.003005      0.004154     -0.000984


--------------------------------------------------------------------------------------------------------



  FREE ENERGIE OF THE ION-ELECTRON SYSTEM (eV)
  ---------------------------------------------------
  free  energy   TOTEN  =      -649.62348665 eV

  energy  without entropy=     -649.51093893  energy(sigma->0) =     -649.56721279
 
 d Force = 0.3839340E-04[ 0.209E-04, 0.558E-04]  d Energy = 0.5393712E-04-0.155E-04
 d Force =-0.2312918E-01[-0.237E-01,-0.226E-01]  d Ewald  =-0.3202183E+01 0.318E+01


--------------------------------------------------------------------------------------------------------


    POTLOK:  cpu time      0.0291: real time      0.0291


--------------------------------------------------------------------------------------------------------


 Conjugate gradient step on ions:
 trial-energy change:   -0.000054  1 .order   -0.000041   -0.000087    0.000005
  (g-gl).g = 0.104E-03      g.g   = 0.962E-04  gl.gl    = 0.393E-03
 g(Force)  = 0.512E-04   g(Stress)= 0.449E-04 ortho     =-0.758E-05
 gamma     =   0.26427
 trial     =   0.92287
 opt step  =   0.87132  (harmonic =   0.87132) maximal distance =0.00055717
 next E    =  -649.623474   (d E  =  -0.00004)


--------------------------------------------------------------------------------------------------------


  
 reached required accuracy - stopping structural energy minimisation
     LOOP+:  cpu time    142.4620: real time    144.8604
    4ORBIT:  cpu time      0.0000: real time      0.0000

 total amount of memory used by VASP MPI-rank0   270971. kBytes
=======================================================================

   base      :      30000. kBytes
   nonl-proj :     196223. kBytes
   fftplans  :       1680. kBytes
   grid      :       8060. kBytes
   one-center:        995. kBytes
   wavefun   :      34013. kBytes
 
  
  
 General timing and accounting informations for this job:
 ========================================================
  
                  Total CPU time used (sec):     1381.224
                            User time (sec):     1377.145
                          System time (sec):        4.079
                         Elapsed time (sec):     1393.056
  
                   Maximum memory used (kb):      357520.
                   Average memory used (kb):          N/A
  
                          Minor page faults:       405898
                          Major page faults:            2
                 Voluntary context switches:         1489
