HECN                                    
           1
     8.870673   -0.000462   -0.004414
    -0.000554    8.982580   -0.006101
    -0.004393   -0.006137    8.878929
   Ti   Ta   Hf   N    C    Zr   V 
     7     6     6    13    19     7     6
Direct configuration=     1
   0.99973119  0.99390292  0.01421129
   0.24225773  0.99289002  0.25293223
   0.25966944  0.50581670  0.25219428
   0.50104691  0.50141403  0.00159746
   0.49790066  0.26342318  0.74789096
   0.99907893  0.50302718  0.48974699
   0.50459057  0.73750380  0.74508917
   0.99886629  0.24052917  0.26155951
   0.75326266  0.74067534  0.00365061
   0.00126532  0.26504133  0.73903079
   0.75152926  0.27326720  0.50557882
   0.99461156  0.73675475  0.74136244
   0.25766325  0.50119853  0.74811957
   0.24779675  0.25285728  0.00138227
   0.50282203  0.25568017  0.25174648
   0.75607244  0.99167263  0.25726303
   0.75082597  0.25678062  0.99390080
   0.24746579  0.74848500  0.00109372
   0.25040250  0.25384293  0.49814375
   0.24816747  0.24957646  0.24977051
   0.24396950  0.00041800  0.00589038
   0.99930462  0.24272929  0.00252741
   0.75295171  0.25070816  0.25353413
   0.75576932  0.00023718  0.00181534
   0.50127950  0.00487330  0.24901442
   0.00065577  0.48991316  0.25780067
   0.50244469  0.74621117  0.99440103
   0.99731233  0.00226052  0.75213563
   0.74788383  0.25326963  0.74709921
   0.75531007  0.01399645  0.49857628
   0.50506528  0.25362127  0.50246276
   0.50340822  0.00002905  0.75013293
   0.00359317  0.99742215  0.25155247
   0.50089837  0.25341847  0.99690232
   0.24064943  0.74862418  0.24833494
   0.25474064  0.50020190  0.00335952
   0.99561948  0.75581936  0.00277644
   0.75861637  0.74009659  0.25418114
   0.74396678  0.50241395  0.00227257
   0.50228089  0.49943172  0.25234643
   0.25147881  0.25420759  0.74992427
   0.24209734  0.00201056  0.49279425
   0.99708294  0.24973642  0.50006550
   0.24955082  0.74558307  0.75158097
   0.25280731  0.49848815  0.49632000
   0.98862280  0.75238902  0.49468378
   0.99554749  0.50019139  0.74348403
   0.74720516  0.73972156  0.74739531
   0.74949076  0.50646196  0.49776768
   0.50914582  0.74031395  0.50655810
   0.50501499  0.50022611  0.74728347
   0.49964883  0.00087051  0.99764531
   0.99925318  0.50264838  0.01024695
   0.50163601  0.74602098  0.25307399
   0.24210877  0.99890035  0.74803621
   0.49742836  0.99246255  0.50149287
   0.75673952  0.98907742  0.74185712
   0.24571729  0.74596740  0.49845662
   0.99846975  0.76878059  0.25951542
   0.73519574  0.51072598  0.24613977
   0.00787884  0.99638603  0.48242723
   0.50657165  0.50797901  0.49792373
   0.73939789  0.50726014  0.75656358
   0.75116391  0.72355683  0.49538385
HECN                                    
           1
     8.868932   -0.001383   -0.003841
    -0.001487    8.985354   -0.006306
    -0.003819   -0.006343    8.876300
   Ti   Ta   Hf   N    C    Zr   V 
     7     6     6    13    19     7     6
Direct configuration=     2
   0.99974165  0.99391548  0.01422370
   0.24226727  0.99291461  0.25292957
   0.25965364  0.50580696  0.25217778
   0.50104295  0.50140705  0.00162384
   0.49788034  0.26340980  0.74788655
   0.99904577  0.50303399  0.48973245
   0.50459076  0.73750994  0.74510996
   0.99885360  0.24052310  0.26156943
   0.75327332  0.74068042  0.00362045
   0.00126673  0.26502583  0.73901491
   0.75152417  0.27325297  0.50558777
   0.99462753  0.73677639  0.74134298
   0.25767710  0.50119815  0.74812055
   0.24779320  0.25286514  0.00137880
   0.50282080  0.25567933  0.25174751
   0.75607035  0.99166117  0.25728057
   0.75082597  0.25677411  0.99389990
   0.24745426  0.74848407  0.00109665
   0.25038599  0.25383236  0.49814409
   0.24816954  0.24958351  0.24977668
   0.24396125  0.00042783  0.00588698
   0.99930831  0.24271978  0.00254030
   0.75295218  0.25068633  0.25353413
   0.75579204  0.00022484  0.00180818
   0.50126667  0.00486630  0.24901617
   0.00063335  0.48994134  0.25779577
   0.50242238  0.74621412  0.99440707
   0.99732487  0.00227142  0.75214275
   0.74787854  0.25325558  0.74709988
   0.75531987  0.01396009  0.49857317
   0.50507060  0.25361483  0.50247036
   0.50341292  0.00003037  0.75012604
   0.00358511  0.99743460  0.25153038
   0.50089723  0.25342318  0.99691022
   0.24064773  0.74862908  0.24833336
   0.25474819  0.50020170  0.00335335
   0.99561229  0.75581911  0.00277643
   0.75861382  0.74011539  0.25417203
   0.74397020  0.50240829  0.00226078
   0.50230814  0.49942925  0.25235250
   0.25147362  0.25422360  0.74992325
   0.24207938  0.00202313  0.49279127
   0.99707784  0.24973063  0.50006104
   0.24954619  0.74558795  0.75159245
   0.25280973  0.49847904  0.49632376
   0.98862522  0.75239654  0.49468053
   0.99555240  0.50018995  0.74347376
   0.74720454  0.73971812  0.74740353
   0.74949084  0.50645767  0.49777634
   0.50915833  0.74032290  0.50656200
   0.50501591  0.50022533  0.74728044
   0.49965323  0.00088193  0.99764014
   0.99924886  0.50264008  0.01024534
   0.50164563  0.74601792  0.25308148
   0.24210087  0.99890124  0.74802595
   0.49744677  0.99247472  0.50149850
   0.75675254  0.98907795  0.74184722
   0.24573249  0.74596097  0.49845594
   0.99846999  0.76873211  0.25953914
   0.73520825  0.51074066  0.24609911
   0.00788533  0.99638109  0.48241248
   0.50658802  0.50797073  0.49788722
   0.73939820  0.50726609  0.75662556
   0.75114587  0.72359254  0.49542028
HECN                                    
           1
     8.869603   -0.001028   -0.004062
    -0.001127    8.984284   -0.006227
    -0.004040   -0.006263    8.877314
   Ti   Ta   Hf   N    C    Zr   V 
     7     6     6    13    19     7     6
Direct configuration=     3
   0.99973762  0.99391064  0.01421891
   0.24226359  0.99290513  0.25293059
   0.25965973  0.50581072  0.25218415
   0.50104448  0.50140974  0.00161366
   0.49788818  0.26341496  0.74788825
   0.99905856  0.50303137  0.48973806
   0.50459069  0.73750757  0.74510194
   0.99885849  0.24052544  0.26156560
   0.75326921  0.74067846  0.00363208
   0.00126619  0.26503181  0.73902104
   0.75152614  0.27325846  0.50558432
   0.99462137  0.73676804  0.74135048
   0.25767175  0.50119830  0.74812017
   0.24779457  0.25286211  0.00138014
   0.50282127  0.25567965  0.25174711
   0.75607116  0.99166559  0.25727380
   0.75082597  0.25677662  0.99390025
   0.24745871  0.74848442  0.00109552
   0.25039236  0.25383644  0.49814396
   0.24816874  0.24958079  0.24977430
   0.24396443  0.00042404  0.00588829
   0.99930689  0.24272345  0.00253533
   0.75295200  0.25069474  0.25353413
   0.75578328  0.00022959  0.00181094
   0.50127162  0.00486900  0.24901549
   0.00064200  0.48993048  0.25779766
   0.50243099  0.74621299  0.99440474
   0.99732004  0.00226722  0.75214000
   0.74788059  0.25326099  0.74709962
   0.75531609  0.01397411  0.49857437
   0.50506854  0.25361732  0.50246743
   0.50341111  0.00002986  0.75012870
   0.00358822  0.99742980  0.25153890
   0.50089767  0.25342136  0.99690717
   0.24064838  0.74862719  0.24833397
   0.25474527  0.50020177  0.00335573
   0.99561506  0.75581921  0.00277643
   0.75861480  0.74010814  0.25417554
   0.74396888  0.50241047  0.00226533
   0.50229763  0.49943020  0.25235016
   0.25147562  0.25421743  0.74992365
   0.24208631  0.00201829  0.49279242
   0.99707981  0.24973286  0.50006276
   0.24954797  0.74558607  0.75158802
   0.25280880  0.49848255  0.49632231
   0.98862429  0.75239364  0.49468178
   0.99555051  0.50019050  0.74347772
   0.74720478  0.73971944  0.74740036
   0.74949081  0.50645932  0.49777300
   0.50915351  0.74031945  0.50656049
   0.50501556  0.50022563  0.74728161
   0.49965153  0.00087753  0.99764213
   0.99925053  0.50264328  0.01024596
   0.50164192  0.74601910  0.25307859
   0.24210392  0.99890090  0.74802991
   0.49743967  0.99247003  0.50149633
   0.75674751  0.98907774  0.74185104
   0.24572663  0.74596345  0.49845620
   0.99846990  0.76875080  0.25952999
   0.73520342  0.51073500  0.24611479
   0.00788283  0.99638299  0.48241817
   0.50658171  0.50797392  0.49790130
   0.73939808  0.50726379  0.75660165
   0.75115283  0.72357877  0.49540622
HECN                                    
           1
     8.870071   -0.001516   -0.003754
    -0.001622    8.985418   -0.006330
    -0.003732   -0.006365    8.877706
   Ti   Ta   Hf   N    C    Zr   V 
     7     6     6    13    19     7     6
Direct configuration=     4
   0.99975172  0.99390473  0.01423518
   0.24227066  0.99291479  0.25293131
   0.25964871  0.50581019  0.25217670
   0.50103572  0.50139888  0.00164560
   0.49786003  0.26342736  0.74788560
   0.99902595  0.50303955  0.48973813
   0.50458546  0.73749027  0.74511950
   0.99884816  0.24050812  0.26155713
   0.75327711  0.74066806  0.00358945
   0.00127053  0.26504321  0.73902700
   0.75151536  0.27328112  0.50558699
   0.99463883  0.73675433  0.74134362
   0.25767613  0.50120221  0.74811233
   0.24779020  0.25287982  0.00137874
   0.50281461  0.25569236  0.25175134
   0.75606343  0.99164370  0.25727486
   0.75083221  0.25677983  0.99390445
   0.24744912  0.74847834  0.00109918
   0.25038283  0.25383776  0.49814138
   0.24817266  0.24958711  0.24977622
   0.24395754  0.00043337  0.00588716
   0.99930902  0.24271506  0.00254563
   0.75294980  0.25066388  0.25353088
   0.75580547  0.00021978  0.00180503
   0.50125937  0.00486650  0.24901452
   0.00061705  0.48995114  0.25779695
   0.50241197  0.74622475  0.99440647
   0.99733250  0.00227774  0.75214122
   0.74786893  0.25323963  0.74710160
   0.75533143  0.01394508  0.49857409
   0.50506912  0.25359963  0.50247976
   0.50341618  0.00003371  0.75012547
   0.00359100  0.99743672  0.25151899
   0.50089487  0.25341400  0.99690452
   0.24064531  0.74863295  0.24833642
   0.25475405  0.50020313  0.00335590
   0.99561113  0.75582191  0.00277916
   0.75861388  0.74013088  0.25417493
   0.74396706  0.50240264  0.00225239
   0.50231630  0.49942688  0.25235430
   0.25147977  0.25422587  0.74992122
   0.24207444  0.00202642  0.49278303
   0.99707414  0.24972607  0.50005938
   0.24955235  0.74559259  0.75159103
   0.25281047  0.49847574  0.49631679
   0.98862799  0.75239788  0.49467593
   0.99555158  0.50019247  0.74346534
   0.74719925  0.73973041  0.74740154
   0.74948444  0.50644776  0.49778273
   0.50916747  0.74033670  0.50657390
   0.50502239  0.50022370  0.74727799
   0.49964602  0.00088432  0.99764574
   0.99925248  0.50264069  0.01023071
   0.50164180  0.74600365  0.25307437
   0.24209457  0.99890475  0.74803157
   0.49744285  0.99247288  0.50149372
   0.75676854  0.98906441  0.74185170
   0.24574886  0.74595211  0.49845723
   0.99846776  0.76872891  0.25954819
   0.73523038  0.51077225  0.24607268
   0.00788795  0.99637491  0.48241103
   0.50661008  0.50797700  0.49785159
   0.73940691  0.50728626  0.75666815
   0.75112673  0.72358179  0.49545500
