  64  64   0   0
  0.9740054E+01  0.8543155E-09  0.8517966E-09  0.8566241E-09  0.5000000E-15
  1.000000000000000E-004
  CAR 
 HECN                                    
     14.23868850    -59.92415358  301      8.53384027      1.00000000
    -59.924  0.0000E+00  0.0000E+00
    -59.677  0.0000E+00  0.0000E+00
    -59.430  0.0000E+00  0.0000E+00
    -59.183  0.0000E+00  0.0000E+00
    -58.935  0.0000E+00  0.0000E+00
    -58.688  0.0000E+00  0.0000E+00
    -58.441  0.0000E+00  0.0000E+00
    -58.194  0.0000E+00  0.0000E+00
    -57.946  0.0000E+00  0.0000E+00
    -57.699  0.0000E+00  0.0000E+00
    -57.452  0.0000E+00  0.0000E+00
    -57.205  0.0000E+00  0.0000E+00
    -56.958  0.4282E-09  0.1059E-09
    -56.710  0.1060E-02  0.2621E-03
    -56.463  0.1217E+00  0.3036E-01
    -56.216  0.4229E+00  0.1349E+00
    -55.969  0.2063E-01  0.1400E+00
    -55.722  0.1081E-06  0.1400E+00
    -55.474  0.0000E+00  0.1400E+00
    -55.227  0.0000E+00  0.1400E+00
    -54.980  0.0000E+00  0.1400E+00
    -54.733  0.0000E+00  0.1400E+00
    -54.486  0.0000E+00  0.1400E+00
    -54.238  0.0000E+00  0.1400E+00
    -53.991  0.0000E+00  0.1400E+00
    -53.744  0.0000E+00  0.1400E+00
    -53.497  0.0000E+00  0.1400E+00
    -53.249  0.0000E+00  0.1400E+00
    -53.002  0.0000E+00  0.1400E+00
    -52.755  0.0000E+00  0.1400E+00
    -52.508  0.0000E+00  0.1400E+00
    -52.261  0.0000E+00  0.1400E+00
    -52.013  0.0000E+00  0.1400E+00
    -51.766  0.0000E+00  0.1400E+00
    -51.519  0.0000E+00  0.1400E+00
    -51.272  0.0000E+00  0.1400E+00
    -51.025  0.0000E+00  0.1400E+00
    -50.777  0.0000E+00  0.1400E+00
    -50.530  0.0000E+00  0.1400E+00
    -50.283  0.0000E+00  0.1400E+00
    -50.036  0.0000E+00  0.1400E+00
    -49.789  0.0000E+00  0.1400E+00
    -49.541  0.6692E-09  0.1400E+00
    -49.294  0.1899E-02  0.1405E+00
    -49.047  0.2016E+00  0.1903E+00
    -48.800  0.2463E+00  0.2512E+00
    -48.553  0.3923E-01  0.2609E+00
    -48.305  0.7437E-01  0.2793E+00
    -48.058  0.2917E-02  0.2800E+00
    -47.811  0.4829E-08  0.2800E+00
    -47.564  0.0000E+00  0.2800E+00
    -47.316  0.0000E+00  0.2800E+00
    -47.069  0.0000E+00  0.2800E+00
    -46.822  0.0000E+00  0.2800E+00
    -46.575  0.0000E+00  0.2800E+00
    -46.328  0.0000E+00  0.2800E+00
    -46.080  0.0000E+00  0.2800E+00
    -45.833  0.0000E+00  0.2800E+00
    -45.586  0.0000E+00  0.2800E+00
    -45.339  0.0000E+00  0.2800E+00
    -45.092  0.0000E+00  0.2800E+00
    -44.844  0.0000E+00  0.2800E+00
    -44.597  0.0000E+00  0.2800E+00
    -44.350  0.0000E+00  0.2800E+00
    -44.103  0.0000E+00  0.2800E+00
    -43.856  0.0000E+00  0.2800E+00
    -43.608  0.0000E+00  0.2800E+00
    -43.361  0.0000E+00  0.2800E+00
    -43.114  0.0000E+00  0.2800E+00
    -42.867  0.0000E+00  0.2800E+00
    -42.619  0.0000E+00  0.2800E+00
    -42.372  0.0000E+00  0.2800E+00
    -42.125  0.0000E+00  0.2800E+00
    -41.878  0.0000E+00  0.2800E+00
    -41.631  0.0000E+00  0.2800E+00
    -41.383  0.0000E+00  0.2800E+00
    -41.136  0.0000E+00  0.2800E+00
    -40.889  0.0000E+00  0.2800E+00
    -40.642  0.0000E+00  0.2800E+00
    -40.395  0.0000E+00  0.2800E+00
    -40.147  0.0000E+00  0.2800E+00
    -39.900  0.0000E+00  0.2800E+00
    -39.653  0.0000E+00  0.2800E+00
    -39.406  0.0000E+00  0.2800E+00
    -39.159  0.0000E+00  0.2800E+00
    -38.911  0.0000E+00  0.2800E+00
    -38.664  0.0000E+00  0.2800E+00
    -38.417  0.0000E+00  0.2800E+00
    -38.170  0.0000E+00  0.2800E+00
    -37.923  0.0000E+00  0.2800E+00
    -37.675  0.0000E+00  0.2800E+00
    -37.428  0.0000E+00  0.2800E+00
    -37.181  0.0000E+00  0.2800E+00
    -36.934  0.0000E+00  0.2800E+00
    -36.686  0.0000E+00  0.2800E+00
    -36.439  0.0000E+00  0.2800E+00
    -36.192  0.0000E+00  0.2800E+00
    -35.945  0.0000E+00  0.2800E+00
    -35.698  0.3832E-07  0.2800E+00
    -35.450  0.6638E-02  0.2816E+00
    -35.203  0.2798E+00  0.3508E+00
    -34.956  0.9803E+00  0.5932E+00
    -34.709  0.1894E+00  0.6400E+00
    -34.462  0.9450E-04  0.6400E+00
    -34.214  0.1569E-11  0.6400E+00
    -33.967  0.0000E+00  0.6400E+00
    -33.720  0.0000E+00  0.6400E+00
    -33.473  0.0000E+00  0.6400E+00
    -33.226  0.0000E+00  0.6400E+00
    -32.978  0.0000E+00  0.6400E+00
    -32.731  0.0000E+00  0.6400E+00
    -32.484  0.0000E+00  0.6400E+00
    -32.237  0.0000E+00  0.6400E+00
    -31.989  0.0000E+00  0.6400E+00
    -31.742  0.7273E-12  0.6400E+00
    -31.495  0.5088E-04  0.6400E+00
    -31.248  0.5331E-01  0.6532E+00
    -31.001  0.3923E+00  0.7502E+00
    -30.753  0.7472E+00  0.9349E+00
    -30.506  0.4456E+00  0.1045E+01
    -30.259  0.1116E+01  0.1321E+01
    -30.012  0.3992E+00  0.1420E+01
    -29.765  0.1416E-02  0.1420E+01
    -29.517  0.5138E-09  0.1420E+01
    -29.270  0.0000E+00  0.1420E+01
    -29.023  0.0000E+00  0.1420E+01
    -28.776  0.0000E+00  0.1420E+01
    -28.529  0.0000E+00  0.1420E+01
    -28.281  0.0000E+00  0.1420E+01
    -28.034  0.0000E+00  0.1420E+01
    -27.787  0.0000E+00  0.1420E+01
    -27.540  0.0000E+00  0.1420E+01
    -27.293  0.0000E+00  0.1420E+01
    -27.045  0.0000E+00  0.1420E+01
    -26.798  0.0000E+00  0.1420E+01
    -26.551  0.0000E+00  0.1420E+01
    -26.304  0.0000E+00  0.1420E+01
    -26.056  0.5022E-08  0.1420E+01
    -25.809  0.3041E-02  0.1421E+01
    -25.562  0.2424E+00  0.1481E+01
    -25.315  0.7344E+00  0.1662E+01
    -25.068  0.4700E+00  0.1778E+01
    -24.820  0.1861E+00  0.1824E+01
    -24.573  0.6299E-01  0.1840E+01
    -24.326  0.6154E-05  0.1840E+01
    -24.079  0.7086E-14  0.1840E+01
    -23.832  0.0000E+00  0.1840E+01
    -23.584  0.0000E+00  0.1840E+01
    -23.337  0.0000E+00  0.1840E+01
    -23.090  0.0000E+00  0.1840E+01
    -22.843  0.0000E+00  0.1840E+01
    -22.596  0.0000E+00  0.1840E+01
    -22.348  0.0000E+00  0.1840E+01
    -22.101  0.0000E+00  0.1840E+01
    -21.854  0.0000E+00  0.1840E+01
    -21.607  0.0000E+00  0.1840E+01
    -21.359  0.0000E+00  0.1840E+01
    -21.112  0.0000E+00  0.1840E+01
    -20.865  0.0000E+00  0.1840E+01
    -20.618  0.0000E+00  0.1840E+01
    -20.371  0.0000E+00  0.1840E+01
    -20.123  0.0000E+00  0.1840E+01
    -19.876  0.0000E+00  0.1840E+01
    -19.629  0.0000E+00  0.1840E+01
    -19.382  0.0000E+00  0.1840E+01
    -19.135  0.0000E+00  0.1840E+01
    -18.887  0.0000E+00  0.1840E+01
    -18.640  0.0000E+00  0.1840E+01
    -18.393  0.0000E+00  0.1840E+01
    -18.146  0.0000E+00  0.1840E+01
    -17.899  0.0000E+00  0.1840E+01
    -17.651  0.0000E+00  0.1840E+01
    -17.404  0.0000E+00  0.1840E+01
    -17.157  0.0000E+00  0.1840E+01
    -16.910  0.0000E+00  0.1840E+01
    -16.662  0.0000E+00  0.1840E+01
    -16.415  0.0000E+00  0.1840E+01
    -16.168  0.0000E+00  0.1840E+01
    -15.921  0.0000E+00  0.1840E+01
    -15.674  0.0000E+00  0.1840E+01
    -15.426  0.0000E+00  0.1840E+01
    -15.179  0.0000E+00  0.1840E+01
    -14.932  0.0000E+00  0.1840E+01
    -14.685  0.0000E+00  0.1840E+01
    -14.438  0.0000E+00  0.1840E+01
    -14.190  0.0000E+00  0.1840E+01
    -13.943  0.0000E+00  0.1840E+01
    -13.696  0.0000E+00  0.1840E+01
    -13.449  0.0000E+00  0.1840E+01
    -13.202  0.0000E+00  0.1840E+01
    -12.954  0.0000E+00  0.1840E+01
    -12.707  0.0000E+00  0.1840E+01
    -12.460  0.0000E+00  0.1840E+01
    -12.213  0.0000E+00  0.1840E+01
    -11.966  0.0000E+00  0.1840E+01
    -11.718  0.0000E+00  0.1840E+01
    -11.471  0.0000E+00  0.1840E+01
    -11.224  0.0000E+00  0.1840E+01
    -10.977  0.0000E+00  0.1840E+01
    -10.729  0.0000E+00  0.1840E+01
    -10.482  0.0000E+00  0.1840E+01
    -10.235  0.0000E+00  0.1840E+01
     -9.988  0.0000E+00  0.1840E+01
     -9.741  0.0000E+00  0.1840E+01
     -9.493  0.0000E+00  0.1840E+01
     -9.246  0.0000E+00  0.1840E+01
     -8.999  0.0000E+00  0.1840E+01
     -8.752  0.4324E-12  0.1840E+01
     -8.505  0.9369E-05  0.1840E+01
     -8.257  0.1116E-01  0.1843E+01
     -8.010  0.6418E-01  0.1859E+01
     -7.763  0.4898E-01  0.1871E+01
     -7.516  0.6649E-01  0.1887E+01
     -7.269  0.1110E+00  0.1915E+01
     -7.021  0.1585E+00  0.1954E+01
     -6.774  0.1557E+00  0.1992E+01
     -6.527  0.1425E+00  0.2028E+01
     -6.280  0.2327E+00  0.2085E+01
     -6.032  0.6046E-01  0.2100E+01
     -5.785  0.3026E-04  0.2100E+01
     -5.538  0.2944E-12  0.2100E+01
     -5.291  0.1743E-08  0.2100E+01
     -5.044  0.7160E-03  0.2100E+01
     -4.796  0.5281E-01  0.2113E+01
     -4.549  0.2756E-01  0.2120E+01
     -4.302  0.5297E-01  0.2133E+01
     -4.055  0.1128E+00  0.2161E+01
     -3.808  0.1263E+00  0.2192E+01
     -3.560  0.1632E+00  0.2233E+01
     -3.313  0.1896E+00  0.2279E+01
     -3.066  0.2293E+00  0.2336E+01
     -2.819  0.2216E+00  0.2391E+01
     -2.572  0.2006E+00  0.2441E+01
     -2.324  0.1305E+00  0.2473E+01
     -2.077  0.2918E-01  0.2480E+01
     -1.830  0.1320E-03  0.2480E+01
     -1.583  0.2257E-09  0.2480E+01
     -1.336  0.0000E+00  0.2480E+01
     -1.088  0.0000E+00  0.2480E+01
     -0.841  0.0000E+00  0.2480E+01
     -0.594  0.1114E-16  0.2480E+01
     -0.347  0.2793E-07  0.2480E+01
     -0.099  0.6501E-03  0.2480E+01
      0.148  0.7284E-02  0.2482E+01
      0.395  0.3315E-01  0.2490E+01
      0.642  0.1073E+00  0.2517E+01
      0.889  0.1175E+00  0.2546E+01
      1.137  0.1502E+00  0.2583E+01
      1.384  0.2194E+00  0.2637E+01
      1.631  0.2720E+00  0.2704E+01
      1.878  0.2800E+00  0.2774E+01
      2.125  0.3028E+00  0.2848E+01
      2.373  0.3329E+00  0.2931E+01
      2.620  0.3621E+00  0.3020E+01
      2.867  0.4334E+00  0.3127E+01
      3.114  0.4884E+00  0.3248E+01
      3.361  0.5472E+00  0.3383E+01
      3.609  0.6059E+00  0.3533E+01
      3.856  0.6141E+00  0.3685E+01
      4.103  0.5752E+00  0.3827E+01
      4.350  0.5365E+00  0.3960E+01
      4.598  0.4065E+00  0.4060E+01
      4.845  0.3328E+00  0.4143E+01
      5.092  0.3005E+00  0.4217E+01
      5.339  0.2884E+00  0.4288E+01
      5.586  0.1949E+00  0.4336E+01
      5.834  0.1561E+00  0.4375E+01
      6.081  0.8893E-01  0.4397E+01
      6.328  0.9504E-01  0.4420E+01
      6.575  0.1758E+00  0.4464E+01
      6.822  0.2049E+00  0.4515E+01
      7.070  0.1991E+00  0.4564E+01
      7.317  0.1732E+00  0.4607E+01
      7.564  0.2198E+00  0.4661E+01
      7.811  0.3034E+00  0.4736E+01
      8.058  0.2973E+00  0.4809E+01
      8.306  0.3106E+00  0.4886E+01
      8.553  0.3232E+00  0.4966E+01
      8.800  0.3729E+00  0.5058E+01
      9.047  0.4908E+00  0.5180E+01
      9.294  0.5446E+00  0.5314E+01
      9.542  0.6089E+00  0.5465E+01
      9.789  0.6225E+00  0.5619E+01
     10.036  0.6104E+00  0.5770E+01
     10.283  0.6110E+00  0.5921E+01
     10.531  0.6472E+00  0.6081E+01
     10.778  0.5374E+00  0.6213E+01
     11.025  0.1073E+00  0.6240E+01
     11.272  0.3060E-03  0.6240E+01
     11.519  0.8707E-10  0.6240E+01
     11.767  0.0000E+00  0.6240E+01
     12.014  0.0000E+00  0.6240E+01
     12.261  0.0000E+00  0.6240E+01
     12.508  0.0000E+00  0.6240E+01
     12.755  0.0000E+00  0.6240E+01
     13.003  0.0000E+00  0.6240E+01
     13.250  0.0000E+00  0.6240E+01
     13.497  0.0000E+00  0.6240E+01
     13.744  0.0000E+00  0.6240E+01
     13.991  0.0000E+00  0.6240E+01
     14.239  0.0000E+00  0.6240E+01
