HECN                                    
           1
     8.543127    0.008493   -0.020221
     0.014076    8.517953   -0.002930
     0.010527   -0.017817    8.566216
   V    W    Ti   N    C    Cr   Mo
   7   6   7  13  19   6   6
Direct configuration=     1
   0.00687653  0.98520501  0.01770382
   0.25944805  0.98308154  0.25550162
   0.26652791  0.51674962  0.24088519
   0.49958705  0.48113475  0.00012800
   0.48382108  0.24218591  0.75736223
   0.01414979  0.50154465  0.51799086
   0.50160870  0.74699749  0.73634798
   0.98444622  0.25490547  0.26175228
   0.75761558  0.74953100  0.99956113
   0.01683649  0.23880595  0.74137901
   0.75545410  0.26034354  0.49580873
   0.00256561  0.75318246  0.75105494
   0.25490349  0.50556015  0.75803037
   0.24576258  0.24462119  0.00446881
   0.49850666  0.24578172  0.24787449
   0.74007535  0.99274001  0.25662270
   0.75015905  0.24441661  0.98880627
   0.27183441  0.75905351  0.99962907
   0.25745157  0.24896067  0.49777289
   0.25102483  0.75138313  0.50116457
   0.24841344  0.25026598  0.25107368
   0.25289183  0.00102227  0.00444739
   0.99908316  0.24158923  0.00268886
   0.73977898  0.23767324  0.24462212
   0.74974711  0.99935172  0.00154209
   0.49573224  0.99669550  0.23639719
   0.01096032  0.49316976  0.24493441
   0.50648120  0.75525790  0.99272292
   0.99076242  0.99985560  0.76338993
   0.74896465  0.23196018  0.74445673
   0.74355353  0.00542424  0.49801336
   0.50332031  0.23867437  0.50188826
   0.48911523  0.00041600  0.75711802
   0.00443193  0.00255307  0.24993283
   0.49869021  0.25040517  0.99849276
   0.25601106  0.75041960  0.25042062
   0.24986192  0.50309664  0.00475474
   0.01289236  0.75230884  0.00070986
   0.73480077  0.74777505  0.24533977
   0.75860817  0.49593786  0.00122723
   0.49619090  0.50833049  0.24395969
   0.25511363  0.24297979  0.75121088
   0.26042683  0.99887329  0.50522656
   0.00825259  0.25877722  0.50200083
   0.25736992  0.75852465  0.75007571
   0.24915856  0.50106450  0.49615482
   0.00371338  0.74673959  0.50207712
   0.99915080  0.49500132  0.75318474
   0.74588498  0.76652720  0.74543557
   0.76018875  0.49772026  0.50025277
   0.49894150  0.76092630  0.50057272
   0.49898181  0.49798523  0.75612120
   0.50883730  0.02374073  0.98491044
   0.00243364  0.52937488  0.97801305
   0.49247036  0.76644885  0.27617727
   0.22680716  0.99673374  0.73478155
   0.48026915  0.99585352  0.47016723
   0.70753506  0.99224543  0.77929487
   0.99549463  0.74863374  0.24920540
   0.73792607  0.49812720  0.24316467
   0.01156671  0.00463096  0.49729874
   0.49858773  0.50411545  0.50132300
   0.74026402  0.51197465  0.75922216
   0.75167902  0.73463414  0.49615144
HECN                                    
           1
     8.498900    0.008881   -0.020771
     0.014437    8.469700   -0.003104
     0.009815   -0.017905    8.521724
   V    W    Ti   N    C    Cr   Mo
   7   6   7  13  19   6   6
Direct configuration=     2
   0.00694299  0.98510759  0.01772482
   0.25942307  0.98306818  0.25551447
   0.26662936  0.51679729  0.24090813
   0.49960382  0.48107408  0.00014217
   0.48373900  0.24218827  0.75740458
   0.01422297  0.50152678  0.51801068
   0.50162833  0.74689719  0.73627114
   0.98443019  0.25488892  0.26176327
   0.75763975  0.74951669  0.99952095
   0.01683217  0.23884694  0.74131536
   0.75547528  0.26037312  0.49572849
   0.00255398  0.75310562  0.75101631
   0.25490273  0.50555250  0.75802489
   0.24580516  0.24468520  0.00446681
   0.49853064  0.24585231  0.24787244
   0.74012505  0.99270913  0.25660173
   0.75013649  0.24444397  0.98877935
   0.27186341  0.75904189  0.99964304
   0.25741900  0.24892353  0.49784205
   0.25099323  0.75137706  0.50115623
   0.24840956  0.25025078  0.25107524
   0.25288573  0.00103526  0.00444955
   0.99907777  0.24164323  0.00270825
   0.73977586  0.23765833  0.24466192
   0.74972829  0.99934747  0.00148967
   0.49563859  0.99657939  0.23635801
   0.01102098  0.49313108  0.24493074
   0.50649215  0.75523666  0.99276121
   0.99067039  0.99985543  0.76343424
   0.74893794  0.23192228  0.74444686
   0.74351650  0.00548910  0.49801682
   0.50336591  0.23863840  0.50196510
   0.48918493  0.00043583  0.75722168
   0.00448778  0.00262432  0.24982130
   0.49868229  0.25042162  0.99845041
   0.25603520  0.75043117  0.25042169
   0.24983853  0.50311966  0.00482273
   0.01290570  0.75232747  0.00072904
   0.73477663  0.74781135  0.24535941
   0.75861827  0.49595541  0.00129339
   0.49615828  0.50840580  0.24395566
   0.25516597  0.24295906  0.75121974
   0.26042919  0.99887623  0.50528846
   0.00826518  0.25880278  0.50203752
   0.25736740  0.75854245  0.75008777
   0.24912789  0.50106805  0.49614224
   0.00370306  0.74669656  0.50210147
   0.99913568  0.49493452  0.75318544
   0.74584304  0.76657750  0.74541234
   0.76021752  0.49767118  0.50028336
   0.49896050  0.76098902  0.50056515
   0.49897382  0.49793556  0.75615771
   0.50882731  0.02382266  0.98483347
   0.00242566  0.52937990  0.97795713
   0.49249083  0.76646857  0.27617891
   0.22677374  0.99667611  0.73469151
   0.48028425  0.99579989  0.47012867
   0.70738397  0.99227733  0.77931241
   0.99550058  0.74868194  0.24918700
   0.73793438  0.49812794  0.24317644
   0.01158915  0.00462758  0.49727071
   0.49859098  0.50415398  0.50132947
   0.74027446  0.51199852  0.75923258
   0.75163195  0.73463614  0.49614083
HECN                                    
           1
     8.528412    0.008622   -0.020404
     0.014196    8.501899   -0.002988
     0.010290   -0.017846    8.551413
   V    W    Ti   N    C    Cr   Mo
   7   6   7  13  19   6   6
Direct configuration=     3
   0.00689841  0.98517297  0.01771073
   0.25943983  0.98307715  0.25550585
   0.26656131  0.51676530  0.24089273
   0.49959257  0.48111480  0.00013267
   0.48379405  0.24218669  0.75737618
   0.01417388  0.50153877  0.51799738
   0.50161516  0.74696450  0.73632268
   0.98444094  0.25490002  0.26175590
   0.75762354  0.74952629  0.99954790
   0.01683507  0.23881943  0.74135805
   0.75546108  0.26035327  0.49578231
   0.00256178  0.75315719  0.75104222
   0.25490324  0.50555763  0.75802857
   0.24577660  0.24464224  0.00446815
   0.49851456  0.24580494  0.24787381
   0.74009171  0.99272986  0.25661579
   0.75015162  0.24442561  0.98879741
   0.27184396  0.75904969  0.99963367
   0.25744084  0.24894845  0.49779566
   0.25101443  0.75138113  0.50116183
   0.24841216  0.25026098  0.25107419
   0.25288982  0.00102654  0.00444810
   0.99908139  0.24160699  0.00269524
   0.73977795  0.23766834  0.24463522
   0.74974091  0.99935032  0.00152483
   0.49570141  0.99665731  0.23638430
   0.01098029  0.49315704  0.24493319
   0.50648480  0.75525091  0.99273552
   0.99073212  0.99985554  0.76340453
   0.74895586  0.23194771  0.74445348
   0.74354134  0.00544557  0.49801450
   0.50333531  0.23866254  0.50191355
   0.48913817  0.00042252  0.75715214
   0.00445033  0.00257650  0.24989611
   0.49868760  0.25041058  0.99847882
   0.25601901  0.75042340  0.25042097
   0.24985421  0.50310421  0.00477712
   0.01289675  0.75231497  0.00071617
   0.73479282  0.74778699  0.24534623
   0.75861149  0.49594363  0.00124901
   0.49618016  0.50835526  0.24395836
   0.25513086  0.24297297  0.75121380
   0.26042760  0.99887426  0.50524694
   0.00825673  0.25878562  0.50201291
   0.25736909  0.75853050  0.75007968
   0.24914846  0.50106567  0.49615068
   0.00370998  0.74672544  0.50208513
   0.99914582  0.49497935  0.75318497
   0.74587117  0.76654374  0.74542792
   0.76019822  0.49770412  0.50026284
   0.49894776  0.76094693  0.50057023
   0.49897918  0.49796889  0.75613322
   0.50883402  0.02376768  0.98488510
   0.00243102  0.52937653  0.97799464
   0.49247710  0.76645534  0.27617781
   0.22679616  0.99671478  0.73475191
   0.48027412  0.99583589  0.47015453
   0.70748531  0.99225592  0.77930065
   0.99549659  0.74864960  0.24919934
   0.73792880  0.49812744  0.24316855
   0.01157410  0.00462985  0.49728951
   0.49858880  0.50412812  0.50132513
   0.74026745  0.51198250  0.75922559
   0.75166353  0.73463479  0.49614795
HECN                                    
           1
     8.528490    0.008621   -0.020403
     0.014195    8.501984   -0.002987
     0.010292   -0.017846    8.551491
   V    W    Ti   N    C    Cr   Mo
   7   6   7  13  19   6   6
Direct configuration=     4
   0.00689829  0.98517314  0.01771069
   0.25943987  0.98307717  0.25550582
   0.26656113  0.51676522  0.24089269
   0.49959254  0.48111490  0.00013264
   0.48379420  0.24218668  0.75737610
   0.01417376  0.50153880  0.51799735
   0.50161513  0.74696468  0.73632282
   0.98444097  0.25490005  0.26175588
   0.75762350  0.74952632  0.99954797
   0.01683508  0.23881936  0.74135817
   0.75546104  0.26035322  0.49578245
   0.00256180  0.75315732  0.75104229
   0.25490324  0.50555764  0.75802858
   0.24577653  0.24464213  0.00446815
   0.49851452  0.24580481  0.24787382
   0.74009162  0.99272991  0.25661583
   0.75015166  0.24442556  0.98879746
   0.27184391  0.75904971  0.99963365
   0.25744090  0.24894852  0.49779554
   0.25101448  0.75138114  0.50116184
   0.24841217  0.25026101  0.25107419
   0.25288983  0.00102652  0.00444809
   0.99908140  0.24160690  0.00269521
   0.73977796  0.23766836  0.24463515
   0.74974095  0.99935033  0.00152493
   0.49570157  0.99665751  0.23638437
   0.01098019  0.49315711  0.24493320
   0.50648478  0.75525095  0.99273546
   0.99073228  0.99985554  0.76340445
   0.74895590  0.23194778  0.74445350
   0.74354141  0.00544546  0.49801450
   0.50333523  0.23866260  0.50191342
   0.48913805  0.00042248  0.75715196
   0.00445023  0.00257638  0.24989631
   0.49868762  0.25041056  0.99847889
   0.25601896  0.75042338  0.25042097
   0.24985426  0.50310417  0.00477700
   0.01289672  0.75231493  0.00071614
   0.73479286  0.74778693  0.24534620
   0.75861148  0.49594360  0.00124889
   0.49618022  0.50835513  0.24395837
   0.25513077  0.24297301  0.75121378
   0.26042760  0.99887425  0.50524683
   0.00825671  0.25878558  0.50201284
   0.25736909  0.75853047  0.75007966
   0.24914852  0.50106566  0.49615070
   0.00370999  0.74672551  0.50208509
   0.99914585  0.49497947  0.75318497
   0.74587125  0.76654366  0.74542797
   0.76019817  0.49770420  0.50026279
   0.49894773  0.76094682  0.50057024
   0.49897919  0.49796898  0.75613316
   0.50883404  0.02376753  0.98488523
   0.00243103  0.52937652  0.97799474
   0.49247706  0.76645530  0.27617780
   0.22679622  0.99671488  0.73475206
   0.48027409  0.99583598  0.47015460
   0.70748558  0.99225586  0.77930062
   0.99549658  0.74864951  0.24919938
   0.73792879  0.49812744  0.24316853
   0.01157406  0.00462986  0.49728956
   0.49858880  0.50412805  0.50132512
   0.74026744  0.51198246  0.75922557
   0.75166361  0.73463479  0.49614797
HECN                                    
           1
     8.528435    0.008622   -0.020404
     0.014196    8.501924   -0.002988
     0.010291   -0.017846    8.551436
   V    W    Ti   N    C    Cr   Mo
   7   6   7  13  19   6   6
Direct configuration=     5
   0.00689837  0.98517302  0.01771072
   0.25943984  0.98307716  0.25550584
   0.26656126  0.51676528  0.24089272
   0.49959256  0.48111483  0.00013266
   0.48379410  0.24218668  0.75737616
   0.01417385  0.50153878  0.51799737
   0.50161515  0.74696455  0.73632272
   0.98444095  0.25490003  0.26175589
   0.75762353  0.74952630  0.99954792
   0.01683507  0.23881941  0.74135809
   0.75546107  0.26035326  0.49578235
   0.00256179  0.75315723  0.75104224
   0.25490324  0.50555764  0.75802857
   0.24577658  0.24464221  0.00446815
   0.49851455  0.24580490  0.24787381
   0.74009168  0.99272987  0.25661580
   0.75015163  0.24442560  0.98879742
   0.27184394  0.75904970  0.99963366
   0.25744086  0.24894847  0.49779562
   0.25101444  0.75138114  0.50116183
   0.24841216  0.25026099  0.25107419
   0.25288983  0.00102654  0.00444810
   0.99908139  0.24160696  0.00269523
   0.73977795  0.23766835  0.24463520
   0.74974092  0.99935032  0.00152486
   0.49570145  0.99665737  0.23638432
   0.01098026  0.49315706  0.24493320
   0.50648480  0.75525092  0.99273550
   0.99073216  0.99985554  0.76340450
   0.74895587  0.23194773  0.74445349
   0.74354136  0.00544554  0.49801450
   0.50333529  0.23866256  0.50191351
   0.48913813  0.00042251  0.75715209
   0.00445030  0.00257647  0.24989617
   0.49868761  0.25041058  0.99847884
   0.25601899  0.75042340  0.25042097
   0.24985423  0.50310420  0.00477709
   0.01289674  0.75231496  0.00071616
   0.73479283  0.74778697  0.24534622
   0.75861149  0.49594362  0.00124897
   0.49618018  0.50835522  0.24395837
   0.25513083  0.24297298  0.75121379
   0.26042760  0.99887425  0.50524691
   0.00825672  0.25878561  0.50201289
   0.25736909  0.75853049  0.75007967
   0.24914848  0.50106566  0.49615069
   0.00370998  0.74672546  0.50208512
   0.99914583  0.49497938  0.75318497
   0.74587120  0.76654372  0.74542794
   0.76019821  0.49770414  0.50026282
   0.49894775  0.76094689  0.50057023
   0.49897918  0.49796892  0.75613320
   0.50883402  0.02376763  0.98488514
   0.00243102  0.52937653  0.97799467
   0.49247709  0.76645533  0.27617781
   0.22679618  0.99671481  0.73475195
   0.48027411  0.99583591  0.47015455
   0.70748539  0.99225590  0.77930064
   0.99549658  0.74864957  0.24919935
   0.73792880  0.49812744  0.24316854
   0.01157409  0.00462985  0.49728953
   0.49858880  0.50412810  0.50132512
   0.74026745  0.51198249  0.75922559
   0.75166355  0.73463479  0.49614796
HECN                                    
           1
     8.528416    0.008622   -0.020404
     0.014196    8.501904   -0.002988
     0.010290   -0.017846    8.551417
   V    W    Ti   N    C    Cr   Mo
   7   6   7  13  19   6   6
Direct configuration=     6
   0.00689840  0.98517298  0.01771073
   0.25943983  0.98307715  0.25550585
   0.26656130  0.51676530  0.24089273
   0.49959257  0.48111480  0.00013267
   0.48379406  0.24218669  0.75737617
   0.01417388  0.50153877  0.51799738
   0.50161516  0.74696451  0.73632269
   0.98444094  0.25490003  0.26175590
   0.75762354  0.74952630  0.99954790
   0.01683507  0.23881943  0.74135806
   0.75546107  0.26035327  0.49578232
   0.00256178  0.75315720  0.75104222
   0.25490324  0.50555763  0.75802857
   0.24577660  0.24464224  0.00446815
   0.49851456  0.24580493  0.24787381
   0.74009171  0.99272986  0.25661580
   0.75015163  0.24442561  0.98879741
   0.27184395  0.75904969  0.99963367
   0.25744084  0.24894846  0.49779565
   0.25101443  0.75138113  0.50116183
   0.24841216  0.25026098  0.25107419
   0.25288982  0.00102654  0.00444810
   0.99908139  0.24160699  0.00269524
   0.73977795  0.23766834  0.24463522
   0.74974092  0.99935032  0.00152484
   0.49570141  0.99665732  0.23638430
   0.01098029  0.49315705  0.24493319
   0.50648480  0.75525091  0.99273552
   0.99073213  0.99985554  0.76340452
   0.74895586  0.23194772  0.74445348
   0.74354135  0.00544556  0.49801450
   0.50333531  0.23866254  0.50191355
   0.48913816  0.00042252  0.75715213
   0.00445032  0.00257650  0.24989612
   0.49868760  0.25041058  0.99847882
   0.25601900  0.75042340  0.25042097
   0.24985422  0.50310421  0.00477712
   0.01289675  0.75231497  0.00071617
   0.73479282  0.74778699  0.24534623
   0.75861149  0.49594363  0.00124900
   0.49618017  0.50835525  0.24395836
   0.25513085  0.24297297  0.75121379
   0.26042760  0.99887426  0.50524694
   0.00825673  0.25878562  0.50201290
   0.25736909  0.75853050  0.75007968
   0.24914847  0.50106566  0.49615068
   0.00370998  0.74672544  0.50208513
   0.99914582  0.49497935  0.75318497
   0.74587118  0.76654374  0.74542793
   0.76019822  0.49770412  0.50026284
   0.49894776  0.76094692  0.50057023
   0.49897918  0.49796890  0.75613322
   0.50883402  0.02376767  0.98488510
   0.00243102  0.52937653  0.97799464
   0.49247710  0.76645533  0.27617781
   0.22679617  0.99671479  0.73475191
   0.48027412  0.99583589  0.47015454
   0.70748533  0.99225592  0.77930065
   0.99549659  0.74864959  0.24919935
   0.73792880  0.49812744  0.24316855
   0.01157410  0.00462985  0.49728952
   0.49858880  0.50412812  0.50132513
   0.74026745  0.51198250  0.75922559
   0.75166353  0.73463479  0.49614795
HECN                                    
           1
     8.528413    0.008622   -0.020404
     0.014196    8.501900   -0.002988
     0.010290   -0.017846    8.551414
   V    W    Ti   N    C    Cr   Mo
   7   6   7  13  19   6   6
Direct configuration=     7
   0.00689841  0.98517297  0.01771073
   0.25943983  0.98307715  0.25550585
   0.26656131  0.51676530  0.24089273
   0.49959257  0.48111480  0.00013267
   0.48379406  0.24218669  0.75737618
   0.01417388  0.50153877  0.51799738
   0.50161516  0.74696450  0.73632269
   0.98444094  0.25490002  0.26175590
   0.75762354  0.74952630  0.99954790
   0.01683507  0.23881943  0.74135806
   0.75546108  0.26035327  0.49578231
   0.00256178  0.75315719  0.75104222
   0.25490324  0.50555763  0.75802857
   0.24577660  0.24464224  0.00446815
   0.49851456  0.24580494  0.24787381
   0.74009171  0.99272986  0.25661579
   0.75015162  0.24442561  0.98879741
   0.27184396  0.75904969  0.99963367
   0.25744084  0.24894846  0.49779566
   0.25101443  0.75138113  0.50116183
   0.24841216  0.25026098  0.25107419
   0.25288982  0.00102654  0.00444810
   0.99908139  0.24160699  0.00269524
   0.73977795  0.23766834  0.24463522
   0.74974092  0.99935032  0.00152484
   0.49570141  0.99665731  0.23638430
   0.01098029  0.49315704  0.24493319
   0.50648480  0.75525091  0.99273552
   0.99073212  0.99985554  0.76340453
   0.74895586  0.23194771  0.74445348
   0.74354134  0.00544557  0.49801450
   0.50333531  0.23866254  0.50191355
   0.48913817  0.00042252  0.75715214
   0.00445033  0.00257650  0.24989611
   0.49868760  0.25041058  0.99847882
   0.25601901  0.75042340  0.25042097
   0.24985422  0.50310421  0.00477712
   0.01289675  0.75231497  0.00071617
   0.73479282  0.74778699  0.24534623
   0.75861149  0.49594363  0.00124900
   0.49618016  0.50835526  0.24395836
   0.25513086  0.24297297  0.75121379
   0.26042760  0.99887426  0.50524694
   0.00825673  0.25878562  0.50201291
   0.25736909  0.75853050  0.75007968
   0.24914846  0.50106566  0.49615068
   0.00370998  0.74672544  0.50208513
   0.99914582  0.49497935  0.75318497
   0.74587118  0.76654374  0.74542793
   0.76019822  0.49770412  0.50026284
   0.49894776  0.76094693  0.50057023
   0.49897918  0.49796889  0.75613322
   0.50883402  0.02376767  0.98488510
   0.00243102  0.52937653  0.97799464
   0.49247710  0.76645534  0.27617781
   0.22679616  0.99671478  0.73475191
   0.48027412  0.99583589  0.47015453
   0.70748532  0.99225592  0.77930065
   0.99549659  0.74864959  0.24919934
   0.73792880  0.49812744  0.24316855
   0.01157410  0.00462985  0.49728952
   0.49858880  0.50412812  0.50132513
   0.74026745  0.51198250  0.75922559
   0.75166353  0.73463479  0.49614795
HECN                                    
           1
     8.528065    0.008834   -0.020787
     0.014408    8.500204   -0.003094
     0.009904   -0.017949    8.551138
   V    W    Ti   N    C    Cr   Mo
   7   6   7  13  19   6   6
Direct configuration=     8
   0.00692017  0.98523634  0.01761363
   0.25935017  0.98323324  0.25548695
   0.26651090  0.51665983  0.24098276
   0.49962267  0.48122920  0.00014995
   0.48388621  0.24223966  0.75732466
   0.01415420  0.50152464  0.51787563
   0.50161055  0.74692746  0.73634363
   0.98454017  0.25484517  0.26158480
   0.75760593  0.74955165  0.99950967
   0.01665028  0.23894134  0.74149899
   0.75540961  0.26022088  0.49576354
   0.00253895  0.75311150  0.75101475
   0.25484001  0.50549167  0.75796337
   0.24581148  0.24474414  0.00446953
   0.49849128  0.24587086  0.24789844
   0.74015901  0.99273696  0.25653021
   0.75014740  0.24445928  0.98882919
   0.27180176  0.75900405  0.99965761
   0.25743750  0.24893098  0.49783475
   0.25099436  0.75136576  0.50114307
   0.24840925  0.25025925  0.25107581
   0.25293173  0.00104779  0.00439001
   0.99906677  0.24172097  0.00270069
   0.73969276  0.23763182  0.24455516
   0.74979275  0.99941734  0.00159087
   0.49566139  0.99661817  0.23622128
   0.01107017  0.49324822  0.24490895
   0.50649812  0.75523346  0.99282251
   0.99050035  0.99981617  0.76348998
   0.74889869  0.23193068  0.74447564
   0.74346321  0.00540459  0.49816826
   0.50333308  0.23860935  0.50201396
   0.48894541  0.00036897  0.75704257
   0.00449534  0.00261696  0.24979849
   0.49867363  0.25043931  0.99848508
   0.25601923  0.75040875  0.25041242
   0.24980830  0.50311130  0.00490108
   0.01303379  0.75234573  0.00074117
   0.73471722  0.74786556  0.24537575
   0.75863165  0.49585685  0.00130502
   0.49612805  0.50844934  0.24392210
   0.25524308  0.24291440  0.75122831
   0.26044929  0.99887870  0.50527258
   0.00835044  0.25886099  0.50201897
   0.25743272  0.75861335  0.75009392
   0.24909837  0.50105646  0.49606970
   0.00374910  0.74666876  0.50206213
   0.99908886  0.49490002  0.75316429
   0.74581484  0.76662733  0.74538021
   0.76029468  0.49770880  0.50029874
   0.49891915  0.76103321  0.50062662
   0.49897709  0.49789482  0.75619973
   0.50875085  0.02366714  0.98498753
   0.00244740  0.52914305  0.97812376
   0.49251320  0.76636695  0.27597822
   0.22688348  0.99669641  0.73483156
   0.48045888  0.99587270  0.47025091
   0.70760352  0.99236279  0.77912649
   0.99552228  0.74861682  0.24922124
   0.73806799  0.49804950  0.24324682
   0.01146006  0.00457693  0.49733802
   0.49862772  0.50406848  0.50131498
   0.74036654  0.51182811  0.75914873
   0.75162733  0.73486884  0.49614474
HECN                                    
           1
     8.527864    0.008956   -0.021009
     0.014530    8.499223   -0.003156
     0.009681   -0.018009    8.550979
   V    W    Ti   N    C    Cr   Mo
   7   6   7  13  19   6   6
Direct configuration=     9
   0.00693275  0.98527301  0.01755744
   0.25929828  0.98332359  0.25547601
   0.26648174  0.51659878  0.24103486
   0.49964009  0.48129542  0.00015996
   0.48393954  0.24227032  0.75729485
   0.01414281  0.50151645  0.51780517
   0.50160788  0.74690603  0.73635575
   0.98459759  0.25481341  0.26148579
   0.75759574  0.74956632  0.99948754
   0.01654335  0.23901190  0.74158055
   0.75537983  0.26014425  0.49575268
   0.00252574  0.75308506  0.75099885
   0.25480342  0.50545349  0.75792563
   0.24583167  0.24480312  0.00447033
   0.49847781  0.24590901  0.24791270
   0.74019795  0.99274107  0.25648068
   0.75014496  0.24447876  0.98884758
   0.27177735  0.75897764  0.99967145
   0.25743556  0.24892086  0.49785737
   0.25098274  0.75135687  0.50113222
   0.24840757  0.25025825  0.25107675
   0.25295598  0.00106009  0.00435639
   0.99905831  0.24178693  0.00270384
   0.73964345  0.23761068  0.24450883
   0.74982274  0.99945612  0.00162909
   0.49563822  0.99659551  0.23612694
   0.01112217  0.49330098  0.24489493
   0.50650582  0.75522335  0.99287285
   0.99036623  0.99979339  0.76353943
   0.74886561  0.23192082  0.74448846
   0.74341799  0.00538087  0.49825724
   0.50333179  0.23857857  0.50207206
   0.48883386  0.00033797  0.75697916
   0.00452138  0.00264038  0.24974200
   0.49866554  0.25045594  0.99848871
   0.25601936  0.75040027  0.25040747
   0.24978173  0.50311541  0.00497281
   0.01311310  0.75236353  0.00075565
   0.73467347  0.74791103  0.24539282
   0.75864332  0.49580663  0.00133744
   0.49609788  0.50850379  0.24390112
   0.25530802  0.24288050  0.75123671
   0.26046184  0.99888128  0.50528741
   0.00840467  0.25890462  0.50202248
   0.25746954  0.75866131  0.75010217
   0.24906938  0.50105114  0.49602284
   0.00377174  0.74663595  0.50204882
   0.99905590  0.49485410  0.75315232
   0.74578224  0.76667572  0.74535259
   0.76035051  0.49771152  0.50031952
   0.49890260  0.76108315  0.50065926
   0.49897588  0.49785196  0.75623822
   0.50870273  0.02360896  0.98504680
   0.00245688  0.52900792  0.97819847
   0.49253408  0.76631580  0.27586273
   0.22693402  0.99668578  0.73487766
   0.48056581  0.99589401  0.47030669
   0.70767191  0.99242464  0.77902571
   0.99553715  0.74859785  0.24923391
   0.73814853  0.49800438  0.24329213
   0.01139407  0.00454630  0.49736608
   0.49865024  0.50403396  0.50130911
   0.74042387  0.51173875  0.75910425
   0.75160638  0.73500431  0.49614288
HECN                                    
           1
     8.526795    0.009028   -0.021004
     0.014601    8.498653   -0.003031
     0.009681   -0.017883    8.549287
   V    W    Ti   N    C    Cr   Mo
   7   6   7  13  19   6   6
Direct configuration=    10
   0.00700875  0.98529586  0.01741420
   0.25924747  0.98341804  0.25550281
   0.26645014  0.51652233  0.24114592
   0.49967097  0.48139696  0.00017890
   0.48407086  0.24230388  0.75733096
   0.01412371  0.50149419  0.51769113
   0.50164544  0.74683992  0.73640874
   0.98462639  0.25470486  0.26148349
   0.75764274  0.74954014  0.99941517
   0.01659314  0.23908691  0.74160089
   0.75549800  0.26001859  0.49566129
   0.00251032  0.75297145  0.75107328
   0.25473461  0.50536224  0.75790322
   0.24591040  0.24491238  0.00441633
   0.49844996  0.24594226  0.24790887
   0.74025034  0.99279908  0.25633263
   0.75007435  0.24448306  0.98894907
   0.27169323  0.75894084  0.99970024
   0.25742003  0.24887911  0.49795609
   0.25101256  0.75138537  0.50109868
   0.24840407  0.25025288  0.25107830
   0.25299963  0.00109608  0.00428327
   0.99905681  0.24199673  0.00270241
   0.73962391  0.23761069  0.24446662
   0.74985531  0.99949557  0.00157579
   0.49560749  0.99659004  0.23602367
   0.01116393  0.49336177  0.24486968
   0.50654851  0.75518220  0.99301101
   0.99012502  0.99979913  0.76358029
   0.74883636  0.23194904  0.74445763
   0.74332075  0.00532427  0.49848833
   0.50335370  0.23856111  0.50216015
   0.48879242  0.00025866  0.75690530
   0.00453362  0.00263637  0.24971590
   0.49866696  0.25047420  0.99849851
   0.25599461  0.75044058  0.25042638
   0.24975444  0.50309949  0.00498360
   0.01311840  0.75225662  0.00072242
   0.73469159  0.74789729  0.24534808
   0.75866213  0.49580999  0.00134920
   0.49620660  0.50855755  0.24393256
   0.25521365  0.24284255  0.75125413
   0.26047514  0.99888263  0.50532215
   0.00837779  0.25888714  0.50195602
   0.25747801  0.75865126  0.75011561
   0.24907276  0.50102689  0.49599927
   0.00378145  0.74658990  0.50203471
   0.99904033  0.49486195  0.75313816
   0.74578460  0.76664377  0.74534114
   0.76037386  0.49778953  0.50033471
   0.49886535  0.76107884  0.50063334
   0.49897412  0.49781868  0.75623340
   0.50865462  0.02358061  0.98500797
   0.00248742  0.52894077  0.97831139
   0.49249172  0.76626206  0.27577906
   0.22686561  0.99670621  0.73496287
   0.48070021  0.99589720  0.47024851
   0.70752468  0.99254894  0.77903206
   0.99558504  0.74864803  0.24921030
   0.73822015  0.49799017  0.24343522
   0.01130288  0.00459297  0.49737743
   0.49874963  0.50402525  0.50128624
   0.74045302  0.51165127  0.75909388
   0.75157867  0.73513540  0.49614154
HECN                                    
           1
     8.526243    0.009065   -0.021001
     0.014638    8.498358   -0.002967
     0.009680   -0.017817    8.548412
   V    W    Ti   N    C    Cr   Mo
   7   6   7  13  19   6   6
Direct configuration=    11
   0.00704805  0.98530767  0.01734013
   0.25922120  0.98346688  0.25551667
   0.26643380  0.51648280  0.24120335
   0.49968693  0.48144946  0.00018870
   0.48413876  0.24232123  0.75734963
   0.01411384  0.50148269  0.51763216
   0.50166486  0.74680574  0.73643615
   0.98464128  0.25464873  0.26148230
   0.75766705  0.74952661  0.99937774
   0.01661888  0.23912569  0.74161142
   0.75555910  0.25995361  0.49561403
   0.00250234  0.75291271  0.75111178
   0.25469902  0.50531505  0.75789164
   0.24595111  0.24496887  0.00438841
   0.49843555  0.24595946  0.24790688
   0.74027743  0.99282908  0.25625606
   0.75003783  0.24448529  0.98900156
   0.27164974  0.75892182  0.99971513
   0.25741199  0.24885752  0.49800714
   0.25102798  0.75140011  0.50108134
   0.24840226  0.25025010  0.25107910
   0.25302220  0.00111469  0.00424546
   0.99905603  0.24210520  0.00270166
   0.73961380  0.23761069  0.24444479
   0.74987215  0.99951597  0.00154823
   0.49559160  0.99658721  0.23597027
   0.01118552  0.49339320  0.24485662
   0.50657058  0.75516092  0.99308245
   0.99000029  0.99980210  0.76360142
   0.74882123  0.23196362  0.74444169
   0.74327047  0.00529500  0.49860784
   0.50336503  0.23855207  0.50220570
   0.48877099  0.00021765  0.75686711
   0.00453996  0.00263430  0.24970241
   0.49866769  0.25048364  0.99850357
   0.25598181  0.75046141  0.25043616
   0.24974033  0.50309125  0.00498918
   0.01312115  0.75220134  0.00070523
   0.73470096  0.74789018  0.24532494
   0.75867185  0.49581173  0.00135528
   0.49626282  0.50858535  0.24394882
   0.25516485  0.24282293  0.75126314
   0.26048201  0.99888334  0.50534012
   0.00836390  0.25887811  0.50192166
   0.25748239  0.75864607  0.75012257
   0.24907451  0.50101436  0.49598708
   0.00378647  0.74656609  0.50202741
   0.99903227  0.49486601  0.75313084
   0.74578582  0.76662725  0.74533521
   0.76038594  0.49782987  0.50034256
   0.49884609  0.76107661  0.50061994
   0.49897321  0.49780148  0.75623090
   0.50862974  0.02356596  0.98498789
   0.00250321  0.52890606  0.97836979
   0.49246981  0.76623428  0.27573580
   0.22683025  0.99671677  0.73500693
   0.48076970  0.99589886  0.47021843
   0.70744855  0.99261321  0.77903535
   0.99560980  0.74867398  0.24919810
   0.73825718  0.49798282  0.24350921
   0.01125573  0.00461710  0.49738330
   0.49880103  0.50402075  0.50127441
   0.74046810  0.51160604  0.75908852
   0.75156434  0.73520318  0.49614085
HECN                                    
           1
     8.528183    0.009036   -0.020420
     0.014612    8.499632   -0.002488
     0.010267   -0.017339    8.549189
   V    W    Ti   N    C    Cr   Mo
   7   6   7  13  19   6   6
Direct configuration=    12
   0.00716567  0.98529869  0.01711174
   0.25921713  0.98347628  0.25556321
   0.26647063  0.51649077  0.24129392