  64  64   0   0
  0.2218804E+02  0.1124000E-08  0.1124000E-08  0.1124000E-08  0.5000000E-15
  1.000000000000000E-004
  CAR 
 HECN                                    
     13.87875692    -60.69575767  301      7.73944535      1.00000000
    -60.696  0.0000E+00  0.0000E+00
    -60.447  0.0000E+00  0.0000E+00
    -60.199  0.0000E+00  0.0000E+00
    -59.950  0.0000E+00  0.0000E+00
    -59.701  0.0000E+00  0.0000E+00
    -59.453  0.0000E+00  0.0000E+00
    -59.204  0.0000E+00  0.0000E+00
    -58.956  0.0000E+00  0.0000E+00
    -58.707  0.0000E+00  0.0000E+00
    -58.459  0.0000E+00  0.0000E+00
    -58.210  0.0000E+00  0.0000E+00
    -57.961  0.0000E+00  0.0000E+00
    -57.713  0.3602E-09  0.8954E-10
    -57.464  0.1194E-02  0.2968E-03
    -57.216  0.1938E+00  0.4847E-01
    -56.967  0.2812E+00  0.1184E+00
    -56.718  0.6577E-02  0.1200E+00
    -56.470  0.2009E-07  0.1200E+00
    -56.221  0.0000E+00  0.1200E+00
    -55.973  0.0000E+00  0.1200E+00
    -55.724  0.0000E+00  0.1200E+00
    -55.476  0.0000E+00  0.1200E+00
    -55.227  0.0000E+00  0.1200E+00
    -54.978  0.0000E+00  0.1200E+00
    -54.730  0.0000E+00  0.1200E+00
    -54.481  0.0000E+00  0.1200E+00
    -54.233  0.0000E+00  0.1200E+00
    -53.984  0.0000E+00  0.1200E+00
    -53.735  0.0000E+00  0.1200E+00
    -53.487  0.0000E+00  0.1200E+00
    -53.238  0.0000E+00  0.1200E+00
    -52.990  0.0000E+00  0.1200E+00
    -52.741  0.0000E+00  0.1200E+00
    -52.493  0.0000E+00  0.1200E+00
    -52.244  0.0000E+00  0.1200E+00
    -51.995  0.0000E+00  0.1200E+00
    -51.747  0.0000E+00  0.1200E+00
    -51.498  0.0000E+00  0.1200E+00
    -51.250  0.0000E+00  0.1200E+00
    -51.001  0.0000E+00  0.1200E+00
    -50.752  0.0000E+00  0.1200E+00
    -50.504  0.0000E+00  0.1200E+00
    -50.255  0.2646E-08  0.1200E+00
    -50.007  0.3817E-02  0.1209E+00
    -49.758  0.3097E+00  0.1979E+00
    -49.510  0.1758E+00  0.2417E+00
    -49.261  0.7260E-01  0.2597E+00
    -49.012  0.1194E-02  0.2600E+00
    -48.764  0.5118E-09  0.2600E+00
    -48.515  0.0000E+00  0.2600E+00
    -48.267  0.0000E+00  0.2600E+00
    -48.018  0.0000E+00  0.2600E+00
    -47.770  0.0000E+00  0.2600E+00
    -47.521  0.0000E+00  0.2600E+00
    -47.272  0.0000E+00  0.2600E+00
    -47.024  0.0000E+00  0.2600E+00
    -46.775  0.0000E+00  0.2600E+00
    -46.527  0.0000E+00  0.2600E+00
    -46.278  0.0000E+00  0.2600E+00
    -46.029  0.0000E+00  0.2600E+00
    -45.781  0.0000E+00  0.2600E+00
    -45.532  0.0000E+00  0.2600E+00
    -45.284  0.0000E+00  0.2600E+00
    -45.035  0.0000E+00  0.2600E+00
    -44.787  0.0000E+00  0.2600E+00
    -44.538  0.0000E+00  0.2600E+00
    -44.289  0.0000E+00  0.2600E+00
    -44.041  0.0000E+00  0.2600E+00
    -43.792  0.0000E+00  0.2600E+00
    -43.544  0.0000E+00  0.2600E+00
    -43.295  0.0000E+00  0.2600E+00
    -43.046  0.0000E+00  0.2600E+00
    -42.798  0.0000E+00  0.2600E+00
    -42.549  0.0000E+00  0.2600E+00
    -42.301  0.0000E+00  0.2600E+00
    -42.052  0.3115E-12  0.2600E+00
    -41.804  0.3522E-04  0.2600E+00
    -41.555  0.4631E-01  0.2715E+00
    -41.306  0.1262E+00  0.3029E+00
    -41.058  0.2158E+00  0.3565E+00
    -40.809  0.1023E+00  0.3820E+00
    -40.561  0.7179E-01  0.3998E+00
    -40.312  0.7728E-03  0.4000E+00
    -40.063  0.1897E-09  0.4000E+00
    -39.815  0.0000E+00  0.4000E+00
    -39.566  0.0000E+00  0.4000E+00
    -39.318  0.0000E+00  0.4000E+00
    -39.069  0.0000E+00  0.4000E+00
    -38.821  0.0000E+00  0.4000E+00
    -38.572  0.0000E+00  0.4000E+00
    -38.323  0.0000E+00  0.4000E+00
    -38.075  0.0000E+00  0.4000E+00
    -37.826  0.0000E+00  0.4000E+00
    -37.578  0.0000E+00  0.4000E+00
    -37.329  0.0000E+00  0.4000E+00
    -37.080  0.0000E+00  0.4000E+00
    -36.832  0.0000E+00  0.4000E+00
    -36.583  0.0000E+00  0.4000E+00
    -36.335  0.0000E+00  0.4000E+00
    -36.086  0.0000E+00  0.4000E+00
    -35.838  0.0000E+00  0.4000E+00
    -35.589  0.0000E+00  0.4000E+00
    -35.340  0.0000E+00  0.4000E+00
    -35.092  0.0000E+00  0.4000E+00
    -34.843  0.0000E+00  0.4000E+00
    -34.595  0.0000E+00  0.4000E+00
    -34.346  0.0000E+00  0.4000E+00
    -34.098  0.0000E+00  0.4000E+00
    -33.849  0.0000E+00  0.4000E+00
    -33.600  0.0000E+00  0.4000E+00
    -33.352  0.0000E+00  0.4000E+00
    -33.103  0.0000E+00  0.4000E+00
    -32.855  0.0000E+00  0.4000E+00
    -32.606  0.0000E+00  0.4000E+00
    -32.357  0.0000E+00  0.4000E+00
    -32.109  0.0000E+00  0.4000E+00
    -31.860  0.1712E-13  0.4000E+00
    -31.612  0.8548E-05  0.4000E+00
    -31.363  0.6358E-01  0.4158E+00
    -31.115  0.7546E+00  0.6034E+00
    -30.866  0.6240E+00  0.7585E+00
    -30.617  0.6040E-02  0.7600E+00
    -30.369  0.6983E-08  0.7600E+00
    -30.120  0.0000E+00  0.7600E+00
    -29.872  0.0000E+00  0.7600E+00
    -29.623  0.0000E+00  0.7600E+00
    -29.374  0.0000E+00  0.7600E+00
    -29.126  0.0000E+00  0.7600E+00
    -28.877  0.0000E+00  0.7600E+00
    -28.629  0.0000E+00  0.7600E+00
    -28.380  0.0000E+00  0.7600E+00
    -28.132  0.5716E-11  0.7600E+00
    -27.883  0.1919E-03  0.7600E+00
    -27.634  0.1782E+00  0.8043E+00
    -27.386  0.8446E+00  0.1014E+01
    -27.137  0.4228E+00  0.1119E+01
    -26.889  0.2404E-02  0.1120E+01
    -26.640  0.8143E-07  0.1120E+01
    -26.391  0.1566E-01  0.1124E+01
    -26.143  0.8050E+00  0.1324E+01
    -25.894  0.6375E+00  0.1482E+01
    -25.646  0.2244E+00  0.1538E+01
    -25.397  0.6994E-02  0.1540E+01
    -25.149  0.1456E-07  0.1540E+01
    -24.900  0.0000E+00  0.1540E+01
    -24.651  0.0000E+00  0.1540E+01
    -24.403  0.0000E+00  0.1540E+01
    -24.154  0.0000E+00  0.1540E+01
    -23.906  0.0000E+00  0.1540E+01
    -23.657  0.0000E+00  0.1540E+01
    -23.409  0.0000E+00  0.1540E+01
    -23.160  0.0000E+00  0.1540E+01
    -22.911  0.0000E+00  0.1540E+01
    -22.663  0.0000E+00  0.1540E+01
    -22.414  0.0000E+00  0.1540E+01
    -22.166  0.0000E+00  0.1540E+01
    -21.917  0.0000E+00  0.1540E+01
    -21.668  0.0000E+00  0.1540E+01
    -21.420  0.0000E+00  0.1540E+01
    -21.171  0.0000E+00  0.1540E+01
    -20.923  0.0000E+00  0.1540E+01
    -20.674  0.0000E+00  0.1540E+01
    -20.426  0.8097E-09  0.1540E+01
    -20.177  0.1550E-02  0.1540E+01
    -19.928  0.1524E+00  0.1578E+01
    -19.680  0.3292E+00  0.1660E+01
    -19.431  0.5395E+00  0.1794E+01
    -19.183  0.3624E+00  0.1884E+01
    -18.934  0.2395E+00  0.1944E+01
    -18.685  0.6498E-01  0.1960E+01
    -18.437  0.2040E-04  0.1960E+01
    -18.188  0.9707E-13  0.1960E+01
    -17.940  0.0000E+00  0.1960E+01
    -17.691  0.0000E+00  0.1960E+01
    -17.443  0.0000E+00  0.1960E+01
    -17.194  0.0000E+00  0.1960E+01
    -16.945  0.0000E+00  0.1960E+01
    -16.697  0.0000E+00  0.1960E+01
    -16.448  0.0000E+00  0.1960E+01
    -16.200  0.0000E+00  0.1960E+01
    -15.951  0.0000E+00  0.1960E+01
    -15.702  0.0000E+00  0.1960E+01
    -15.454  0.0000E+00  0.1960E+01
    -15.205  0.0000E+00  0.1960E+01
    -14.957  0.0000E+00  0.1960E+01
    -14.708  0.0000E+00  0.1960E+01
    -14.460  0.0000E+00  0.1960E+01
    -14.211  0.0000E+00  0.1960E+01
    -13.962  0.0000E+00  0.1960E+01
    -13.714  0.0000E+00  0.1960E+01
    -13.465  0.0000E+00  0.1960E+01
    -13.217  0.0000E+00  0.1960E+01
    -12.968  0.0000E+00  0.1960E+01
    -12.719  0.0000E+00  0.1960E+01
    -12.471  0.0000E+00  0.1960E+01
    -12.222  0.0000E+00  0.1960E+01
    -11.974  0.0000E+00  0.1960E+01
    -11.725  0.0000E+00  0.1960E+01
    -11.477  0.0000E+00  0.1960E+01
    -11.228  0.0000E+00  0.1960E+01
    -10.979  0.0000E+00  0.1960E+01
    -10.731  0.0000E+00  0.1960E+01
    -10.482  0.0000E+00  0.1960E+01
    -10.234  0.0000E+00  0.1960E+01
     -9.985  0.0000E+00  0.1960E+01
     -9.737  0.0000E+00  0.1960E+01
     -9.488  0.0000E+00  0.1960E+01
     -9.239  0.0000E+00  0.1960E+01
     -8.991  0.3308E-17  0.1960E+01
     -8.742  0.2061E-07  0.1960E+01
     -8.494  0.2345E-02  0.1961E+01
     -8.245  0.6968E-01  0.1978E+01
     -7.996  0.9249E-02  0.1980E+01
     -7.748  0.6151E-01  0.1995E+01
     -7.499  0.1064E+00  0.2022E+01
     -7.251  0.2574E+00  0.2086E+01
     -7.002  0.2021E+00  0.2136E+01
     -6.754  0.2241E+00  0.2192E+01
     -6.505  0.8737E-01  0.2214E+01
     -6.256  0.2538E-01  0.2220E+01
     -6.008  0.3258E-03  0.2220E+01
     -5.759  0.3906E-09  0.2220E+01
     -5.511  0.4240E-10  0.2220E+01
     -5.262  0.1001E-03  0.2220E+01
     -5.013  0.2209E-01  0.2226E+01
     -4.765  0.5628E-01  0.2240E+01
     -4.516  0.6805E-01  0.2256E+01
     -4.268  0.1017E+00  0.2282E+01
     -4.019  0.1379E+00  0.2316E+01
     -3.771  0.2301E+00  0.2373E+01
     -3.522  0.1988E+00  0.2423E+01
     -3.273  0.2096E+00  0.2475E+01
     -3.025  0.2095E+00  0.2527E+01
     -2.776  0.1330E+00  0.2560E+01
     -2.528  0.1244E+00  0.2591E+01
     -2.279  0.3576E-01  0.2600E+01
     -2.030  0.1397E-02  0.2600E+01
     -1.782  0.1330E-06  0.2600E+01
     -1.533  0.1562E-15  0.2600E+01
     -1.285  0.0000E+00  0.2600E+01
     -1.036  0.0000E+00  0.2600E+01
     -0.788  0.0000E+00  0.2600E+01
     -0.539  0.2557E-11  0.2600E+01
     -0.290  0.1890E-04  0.2600E+01
     -0.042  0.4796E-02  0.2601E+01
      0.207  0.2504E-01  0.2607E+01
      0.455  0.1016E+00  0.2633E+01
      0.704  0.1082E+00  0.2660E+01
      0.953  0.1464E+00  0.2696E+01
      1.201  0.2265E+00  0.2752E+01
      1.450  0.2880E+00  0.2824E+01
      1.698  0.2717E+00  0.2891E+01
      1.947  0.3088E+00  0.2968E+01
      2.195  0.3679E+00  0.3060E+01
      2.444  0.3924E+00  0.3157E+01
      2.693  0.4873E+00  0.3278E+01
      2.941  0.6107E+00  0.3430E+01
      3.190  0.6472E+00  0.3591E+01
      3.438  0.6751E+00  0.3759E+01
      3.687  0.6421E+00  0.3918E+01
      3.935  0.5731E+00  0.4061E+01
      4.184  0.4296E+00  0.4168E+01
      4.433  0.3874E+00  0.4264E+01
      4.681  0.3331E+00  0.4347E+01
      4.930  0.2220E+00  0.4402E+01
      5.178  0.2063E+00  0.4453E+01
      5.427  0.1808E+00  0.4498E+01
      5.676  0.8044E-01  0.4518E+01
      5.924  0.1223E+00  0.4549E+01
      6.173  0.1431E+00  0.4584E+01
      6.421  0.1716E+00  0.4627E+01
      6.670  0.1844E+00  0.4673E+01
      6.918  0.2056E+00  0.4724E+01
      7.167  0.1835E+00  0.4769E+01
      7.416  0.2187E+00  0.4824E+01
      7.664  0.2078E+00  0.4875E+01
      7.913  0.2198E+00  0.4930E+01
      8.161  0.3572E+00  0.5019E+01
      8.410  0.4424E+00  0.5129E+01
      8.659  0.5008E+00  0.5253E+01
      8.907  0.4849E+00  0.5374E+01
      9.156  0.5224E+00  0.5504E+01
      9.404  0.5639E+00  0.5644E+01
      9.653  0.5450E+00  0.5779E+01
      9.901  0.5097E+00  0.5906E+01
     10.150  0.5022E+00  0.6031E+01
     10.399  0.4302E+00  0.6138E+01
     10.647  0.8899E-01  0.6160E+01
     10.896  0.2856E-03  0.6160E+01
     11.144  0.6510E-10  0.6160E+01
     11.393  0.0000E+00  0.6160E+01
     11.642  0.0000E+00  0.6160E+01
     11.890  0.0000E+00  0.6160E+01
     12.139  0.0000E+00  0.6160E+01
     12.387  0.0000E+00  0.6160E+01
     12.636  0.0000E+00  0.6160E+01
     12.884  0.0000E+00  0.6160E+01
     13.133  0.0000E+00  0.6160E+01
     13.382  0.0000E+00  0.6160E+01
     13.630  0.0000E+00  0.6160E+01
     13.879  0.0000E+00  0.6160E+01
