       N       E                     dE             d eps       ncg     rms          rms(c)
DAV:   1     0.418977488407E+04    0.41898E+04   -0.21056E+05  9268   0.126E+03
DAV:   2     0.100706634046E+03   -0.40891E+04   -0.39924E+04  8624   0.417E+02
DAV:   3    -0.556199327360E+03   -0.65691E+03   -0.63234E+03 13608   0.124E+02
DAV:   4    -0.628886723668E+03   -0.72687E+02   -0.70786E+02 14308   0.450E+01
DAV:   5    -0.636553884250E+03   -0.76672E+01   -0.74981E+01 16212   0.127E+01    0.770E+01
RMM:   6    -0.621303991335E+03    0.15250E+02   -0.18098E+03 11964   0.847E+01    0.979E+01
RMM:   7    -0.480805703074E+03    0.14050E+03   -0.85549E+02 12576   0.402E+01    0.484E+01
RMM:   8    -0.475314954546E+03    0.54907E+01   -0.18127E+02 12842   0.226E+01    0.492E+01
RMM:   9    -0.463034398038E+03    0.12281E+02   -0.79925E+01 13087   0.893E+00    0.279E+01
RMM:  10    -0.467296274692E+03   -0.42619E+01   -0.36110E+01 13210   0.671E+00    0.408E+01
RMM:  11    -0.461715924429E+03    0.55804E+01   -0.16428E+01 12604   0.551E+00    0.312E+01
RMM:  12    -0.457625360482E+03    0.40906E+01   -0.96533E+00 12612   0.396E+00    0.257E+01
RMM:  13    -0.458179454030E+03   -0.55409E+00   -0.91320E+00 13121   0.396E+00    0.283E+01
RMM:  14    -0.458139596750E+03    0.39857E-01   -0.12291E+01 12911   0.441E+00    0.201E+01
RMM:  15    -0.457393239693E+03    0.74636E+00   -0.51504E+00 13180   0.277E+00    0.197E+01
RMM:  16    -0.456320870445E+03    0.10724E+01   -0.19608E+00 13013   0.184E+00    0.139E+01
RMM:  17    -0.456157381470E+03    0.16349E+00   -0.17910E+00 12734   0.200E+00    0.157E+01
RMM:  18    -0.456137287542E+03    0.20094E-01   -0.28902E+00 12881   0.238E+00    0.186E+01
RMM:  19    -0.455444176530E+03    0.69311E+00   -0.21311E+00 13278   0.174E+00    0.115E+01
RMM:  20    -0.455229465972E+03    0.21471E+00   -0.12104E+00 13935   0.123E+00    0.699E+00
RMM:  21    -0.455245271807E+03   -0.15806E-01   -0.12447E+00 13058   0.117E+00    0.634E+00
RMM:  22    -0.455339692819E+03   -0.94421E-01   -0.11823E+00 13348   0.102E+00    0.606E+00
RMM:  23    -0.455237536077E+03    0.10216E+00   -0.56055E-01 13257   0.891E-01    0.413E+00
RMM:  24    -0.455211511203E+03    0.26025E-01   -0.34704E-01 13343   0.557E-01    0.363E+00
RMM:  25    -0.455192596210E+03    0.18915E-01   -0.22760E-01 13329   0.456E-01    0.333E+00
RMM:  26    -0.455154277818E+03    0.38318E-01   -0.18991E-01 13432   0.456E-01    0.186E+00
RMM:  27    -0.455154512431E+03   -0.23461E-03   -0.18546E-01 13565   0.379E-01    0.171E+00
RMM:  28    -0.455146861928E+03    0.76505E-02   -0.14807E-01 13547   0.383E-01    0.881E-01
RMM:  29    -0.455154608573E+03   -0.77466E-02   -0.12347E-01 13356   0.309E-01    0.780E-01
RMM:  30    -0.455157756377E+03   -0.31478E-02   -0.73837E-02 13283   0.225E-01    0.350E-01
RMM:  31    -0.455161671554E+03   -0.39152E-02   -0.55245E-02 13363   0.161E-01    0.286E-01
RMM:  32    -0.455166358891E+03   -0.46873E-02   -0.43879E-02 13227   0.139E-01    0.515E-01
RMM:  33    -0.455169030481E+03   -0.26716E-02   -0.35151E-02 12901   0.104E-01    0.200E-01
RMM:  34    -0.455171696448E+03   -0.26660E-02   -0.28687E-02 12300   0.850E-02    0.160E-01
RMM:  35    -0.455173866235E+03   -0.21698E-02   -0.22978E-02 11995   0.730E-02    0.554E-02
RMM:  36    -0.455175749413E+03   -0.18832E-02   -0.19100E-02 11963   0.665E-02    0.452E-02
RMM:  37    -0.455177321727E+03   -0.15723E-02   -0.15731E-02 11795   0.594E-02    0.668E-02
RMM:  38    -0.455178596221E+03   -0.12745E-02   -0.13021E-02 11466   0.502E-02    0.314E-02
RMM:  39    -0.455179662845E+03   -0.10666E-02   -0.10838E-02 11348   0.442E-02    0.282E-02
RMM:  40    -0.455180571071E+03   -0.90823E-03   -0.91493E-03 11353   0.408E-02    0.148E-02
RMM:  41    -0.455181342659E+03   -0.77159E-03   -0.77293E-03 10815   0.362E-02    0.199E-02
RMM:  42    -0.455181986378E+03   -0.64372E-03   -0.64746E-03  9963   0.320E-02    0.145E-02
RMM:  43    -0.455182535416E+03   -0.54904E-03   -0.55124E-03 10569   0.303E-02    0.553E-03
RMM:  44    -0.455183005335E+03   -0.46992E-03   -0.47070E-03  9997   0.274E-02    0.433E-03
RMM:  45    -0.455183409197E+03   -0.40386E-03   -0.40507E-03  9366   0.251E-02    0.613E-03
RMM:  46    -0.455183751979E+03   -0.34278E-03   -0.34387E-03 10091   0.240E-02    0.273E-03
RMM:  47    -0.455184048011E+03   -0.29603E-03   -0.29670E-03  8866   0.216E-02    0.207E-03
RMM:  48    -0.455184303745E+03   -0.25573E-03   -0.25682E-03  8931   0.207E-02    0.423E-03
RMM:  49    -0.455184523149E+03   -0.21940E-03   -0.22046E-03  8484   0.193E-02    0.339E-03
RMM:  50    -0.455184714684E+03   -0.19154E-03   -0.19269E-03  7750   0.180E-02    0.740E-03
RMM:  51    -0.455184881193E+03   -0.16651E-03   -0.16737E-03  7470   0.169E-02    0.143E-02
RMM:  52    -0.455185024387E+03   -0.14319E-03   -0.14440E-03  7270   0.162E-02    0.172E-02
RMM:  53    -0.455185150715E+03   -0.12633E-03   -0.12757E-03  7303   0.155E-02    0.202E-02
RMM:  54    -0.455185259415E+03   -0.10870E-03   -0.11002E-03  7039   0.147E-02    0.217E-02
RMM:  55    -0.455185356014E+03   -0.96599E-04   -0.97696E-04  7061   0.142E-02    0.249E-02
RMM:  56    -0.455185440756E+03   -0.84742E-04   -0.86012E-04  6980   0.136E-02    0.271E-02
RMM:  57    -0.455185516132E+03   -0.75375E-04   -0.76622E-04  6733   0.130E-02    0.290E-02
RMM:  58    -0.455185581787E+03   -0.65656E-04   -0.67019E-04  6788   0.126E-02    0.305E-02
RMM:  59    -0.455185639957E+03   -0.58170E-04   -0.59433E-04  6690   0.123E-02    0.323E-02
RMM:  60    -0.455185690971E+03   -0.51014E-04   -0.52295E-04  6532   0.118E-02
   1 F= -.45518569E+03 E0= -.45487999E+03  d E =-.455186E+03
       N       E                     dE             d eps       ncg     rms          rms(c)
DAV:   1    -0.362563626343E+04   -0.31705E+04   -0.88655E+04  8988   0.909E+02    0.364E+02
RMM:   2    -0.118353882863E+04    0.24421E+04   -0.65466E+03 13066   0.249E+02    0.174E+02
RMM:   3    -0.560462100808E+03    0.62308E+03   -0.19171E+03  9696   0.127E+02    0.565E+01
RMM:   4    -0.590683803943E+03   -0.30222E+02   -0.86897E+02 11144   0.710E+01    0.437E+01
RMM:   5    -0.607897056046E+03   -0.17213E+02   -0.26939E+02 14037   0.407E+01    0.344E+01
RMM:   6    -0.588116564940E+03    0.19780E+02   -0.51430E+01 14912   0.180E+01    0.209E+01
RMM:   7    -0.586191884677E+03    0.19247E+01   -0.33693E+01 14955   0.124E+01    0.170E+01
RMM:   8    -0.587357715801E+03   -0.11658E+01   -0.24475E+01 15112   0.980E+00    0.114E+01
RMM:   9    -0.589299155329E+03   -0.19414E+01   -0.14826E+01 15209   0.737E+00    0.104E+01
RMM:  10    -0.589720179797E+03   -0.42102E+00   -0.10423E+01 14867   0.701E+00    0.610E+00
RMM:  11    -0.591456210542E+03   -0.17360E+01   -0.94123E+00 15229   0.519E+00    0.796E+00
RMM:  12    -0.591689996348E+03   -0.23379E+00   -0.65648E+00 14708   0.547E+00    0.391E+00
RMM:  13    -0.592225163592E+03   -0.53517E+00   -0.45257E+00 15309   0.374E+00    0.336E+00
RMM:  14    -0.592523463148E+03   -0.29830E+00   -0.30323E+00 15194   0.307E+00    0.249E+00
RMM:  15    -0.592698593461E+03   -0.17513E+00   -0.20266E+00 15125   0.256E+00    0.132E+00
RMM:  16    -0.592820451124E+03   -0.12186E+00   -0.14453E+00 15127   0.220E+00    0.656E-01
RMM:  17    -0.592892997886E+03   -0.72547E-01   -0.83083E-01 15078   0.174E+00    0.603E-01
RMM:  18    -0.592944192877E+03   -0.51195E-01   -0.55480E-01 15166   0.141E+00    0.639E-01
RMM:  19    -0.592975206458E+03   -0.31014E-01   -0.35648E-01 15139   0.120E+00    0.304E-01
RMM:  20    -0.592998004396E+03   -0.22798E-01   -0.24446E-01 15191   0.101E+00    0.192E-01
RMM:  21    -0.593014059648E+03   -0.16055E-01   -0.16920E-01 15255   0.851E-01    0.255E-01
RMM:  22    -0.593025194846E+03   -0.11135E-01   -0.12238E-01 15148   0.724E-01    0.132E-01
RMM:  23    -0.593033361887E+03   -0.81670E-02   -0.86539E-02 15152   0.626E-01    0.854E-02
RMM:  24    -0.593039654279E+03   -0.62924E-02   -0.67238E-02 15266   0.541E-01    0.753E-02
RMM:  25    -0.593044196100E+03   -0.45418E-02   -0.48803E-02 15117   0.475E-01    0.592E-02
RMM:  26    -0.593047894974E+03   -0.36989E-02   -0.40321E-02 15052   0.418E-01    0.298E-02
RMM:  27    -0.593050700228E+03   -0.28053E-02   -0.30312E-02 14984   0.371E-01    0.433E-02
RMM:  28    -0.593053012111E+03   -0.23119E-02   -0.25441E-02 14778   0.331E-01    0.357E-02
RMM:  29    -0.593054772134E+03   -0.17600E-02   -0.19640E-02 14841   0.297E-01    0.207E-02
RMM:  30    -0.593056233720E+03   -0.14616E-02   -0.16681E-02 14871   0.268E-01    0.278E-02
RMM:  31    -0.593057393379E+03   -0.11597E-02   -0.13350E-02 14690   0.245E-01    0.336E-02
RMM:  32    -0.593058340197E+03   -0.94682E-03   -0.11441E-02 14588   0.224E-01    0.707E-03
RMM:  33    -0.593059113336E+03   -0.77314E-03   -0.94513E-03 14466   0.205E-01    0.184E-02
RMM:  34    -0.593059758636E+03   -0.64530E-03   -0.82435E-03 13833   0.189E-01    0.157E-02
RMM:  35    -0.593060281997E+03   -0.52336E-03   -0.69198E-03 13321   0.176E-01    0.285E-02
RMM:  36    -0.593060730118E+03   -0.44812E-03   -0.62247E-03 12749   0.165E-01    0.313E-02
RMM:  37    -0.593061092289E+03   -0.36217E-03   -0.53186E-03 12459   0.157E-01    0.206E-02
RMM:  38    -0.593061411466E+03   -0.31918E-03   -0.48763E-03 11584   0.149E-01    0.221E-02
RMM:  39    -0.593061670166E+03   -0.25870E-03   -0.42318E-03 11559   0.142E-01    0.242E-02
RMM:  40    -0.593061900357E+03   -0.23019E-03   -0.39707E-03 10893   0.135E-01    0.233E-02
RMM:  41    -0.593062087002E+03   -0.18664E-03   -0.34900E-03 10738   0.130E-01    0.257E-02
RMM:  42    -0.593062256086E+03   -0.16908E-03   -0.33435E-03 10553   0.125E-01    0.236E-02
RMM:  43    -0.593062392416E+03   -0.13633E-03   -0.29730E-03 10300   0.120E-01    0.259E-02
RMM:  44    -0.593062518581E+03   -0.12617E-03   -0.28997E-03 10228   0.116E-01    0.255E-02
RMM:  45    -0.593062618505E+03   -0.99924E-04   -0.26028E-03  9944   0.113E-01    0.272E-02
RMM:  46    -0.593062712894E+03   -0.94389E-04   -0.25763E-03  9954   0.110E-01    0.270E-02
RMM:  47    -0.593062785401E+03   -0.72507E-04   -0.23340E-03  9856   0.107E-01    0.266E-02
RMM:  48    -0.593062855959E+03   -0.70558E-04   -0.23389E-03  9843   0.104E-01    0.263E-02
RMM:  49    -0.593062908339E+03   -0.52380E-04   -0.21325E-03  9471   0.102E-01    0.276E-02
RMM:  50    -0.593062960353E+03   -0.52014E-04   -0.21598E-03  9539   0.998E-02    0.272E-02
RMM:  51    -0.593062996604E+03   -0.36251E-04   -0.19811E-03  9270   0.980E-02    0.285E-02
RMM:  52    -0.593063033610E+03   -0.37005E-04   -0.20218E-03  9348   0.962E-02    0.273E-02
RMM:  53    -0.593063056721E+03   -0.23112E-04   -0.18643E-03  9183   0.947E-02    0.281E-02
RMM:  54    -0.593063081742E+03   -0.25021E-04   -0.19159E-03  9017   0.935E-02    0.279E-02
RMM:  55    -0.593063094043E+03   -0.12301E-04   -0.17749E-03  8821   0.923E-02    0.288E-02
RMM:  56    -0.593063108640E+03   -0.14597E-04   -0.18313E-03  8690   0.913E-02    0.284E-02
RMM:  57    -0.593063111615E+03   -0.29751E-05   -0.17051E-03  8674   0.904E-02    0.287E-02
RMM:  58    -0.593063117169E+03   -0.55538E-05   -0.17636E-03  8284   0.896E-02    0.285E-02
RMM:  59    -0.593063112007E+03    0.51623E-05   -0.16493E-03  8265   0.889E-02    0.292E-02
RMM:  60    -0.593063109501E+03    0.25063E-05   -0.17107E-03  8044   0.882E-02
   2 F= -.59306311E+03 E0= -.59299799E+03  d E =-.137877E+03
       N       E                     dE             d eps       ncg     rms          rms(c)
DAV:   1    -0.101262069115E+04   -0.41956E+03   -0.68813E+03 10808   0.267E+02    0.194E+02
RMM:   2    -0.145536384323E+04   -0.44274E+03   -0.22031E+03 11067   0.117E+02    0.109E+02
RMM:   3    -0.869876297194E+03    0.58549E+03   -0.63021E+02 13022   0.505E+01    0.730E+01
RMM:   4    -0.653164428340E+03    0.21671E+03   -0.29139E+02 12318   0.388E+01    0.306E+01
RMM:   5    -0.645982049956E+03    0.71824E+01   -0.99815E+01 13255   0.196E+01    0.340E+01
RMM:   6    -0.646734301533E+03   -0.75225E+00   -0.34477E+01 13696   0.111E+01    0.256E+01
RMM:   7    -0.647049874384E+03   -0.31557E+00   -0.23579E+01 14180   0.782E+00    0.266E+01
RMM:   8    -0.637233231254E+03    0.98166E+01   -0.20462E+01 14249   0.938E+00    0.109E+01
RMM:   9    -0.638742247085E+03   -0.15090E+01   -0.83393E+00 14277   0.464E+00    0.179E+01
RMM:  10    -0.638148209359E+03    0.59404E+00   -0.41895E+00 14662   0.361E+00    0.127E+01
RMM:  11    -0.637277939815E+03    0.87027E+00   -0.27293E+00 14575   0.298E+00    0.635E+00
RMM:  12    -0.637674763917E+03   -0.39682E+00   -0.23108E+00 14799   0.231E+00    0.745E+00
RMM:  13    -0.637469716497E+03    0.20505E+00   -0.11411E+00 14669   0.190E+00    0.458E+00
RMM:  14    -0.637348588347E+03    0.12113E+00   -0.63642E-01 14765   0.133E+00    0.285E+00
RMM:  15    -0.637340429335E+03    0.81590E-02   -0.42781E-01 15013   0.107E+00    0.180E+00
RMM:  16    -0.637424372901E+03   -0.83944E-01   -0.33777E-01 14769   0.997E-01    0.293E+00
RMM:  17    -0.637394966538E+03    0.29406E-01   -0.37140E-01 14704   0.117E+00    0.145E+00
RMM:  18    -0.637472817573E+03   -0.77851E-01   -0.28802E-01 14838   0.772E-01    0.300E+00
RMM:  19    -0.637432744084E+03    0.40073E-01   -0.11764E-01 14831   0.633E-01    0.167E+00
RMM:  20    -0.637412000309E+03    0.20744E-01   -0.97818E-02 14808   0.550E-01    0.493E-01
RMM:  21    -0.637415365794E+03   -0.33655E-02   -0.79120E-02 15083   0.430E-01    0.322E-01
RMM:  22    -0.637417651052E+03   -0.22853E-02   -0.35143E-02 14985   0.320E-01    0.171E-01
RMM:  23    -0.637420126839E+03   -0.24758E-02   -0.25876E-02 15034   0.268E-01    0.294E-01
RMM:  24    -0.637421121561E+03   -0.99472E-03   -0.17880E-02 14855   0.233E-01    0.108E-01
RMM:  25    -0.637422283255E+03   -0.11617E-02   -0.13773E-02 14869   0.194E-01    0.705E-02
RMM:  26    -0.637423125580E+03   -0.84233E-03   -0.91547E-03 14917   0.164E-01    0.855E-02
RMM:  27    -0.637423673830E+03   -0.54825E-03   -0.66452E-03 14710   0.146E-01    0.640E-02
RMM:  28    -0.637424080266E+03   -0.40644E-03   -0.49087E-03 14655   0.125E-01    0.249E-02
RMM:  29    -0.637424411851E+03   -0.33158E-03   -0.37714E-03 14477   0.109E-01    0.294E-02
RMM:  30    -0.637424644250E+03   -0.23240E-03   -0.27598E-03 14389   0.967E-02    0.652E-03
RMM:  31    -0.637424842398E+03   -0.19815E-03   -0.22543E-03 14310   0.849E-02    0.131E-02
RMM:  32    -0.637424981326E+03   -0.13893E-03   -0.16529E-03 14197   0.748E-02    0.933E-03
RMM:  33    -0.637425088473E+03   -0.10715E-03   -0.12888E-03 13970   0.668E-02    0.407E-03
RMM:  34    -0.637425170927E+03   -0.82455E-04   -0.10092E-03 13408   0.600E-02    0.664E-03
RMM:  35    -0.637425234252E+03   -0.63325E-04   -0.80310E-04 13038   0.547E-02    0.562E-03
RMM:  36    -0.637425284285E+03   -0.50033E-04   -0.65131E-04 12289   0.500E-02    0.770E-03
RMM:  37    -0.637425323637E+03   -0.39352E-04   -0.53365E-04 11786   0.459E-02    0.904E-03
RMM:  38    -0.637425354627E+03   -0.30990E-04   -0.44060E-04 11168   0.429E-02    0.104E-02
RMM:  39    -0.637425378532E+03   -0.23904E-04   -0.36880E-04 10926   0.402E-02    0.969E-03
RMM:  40    -0.637425397385E+03   -0.18853E-04   -0.30926E-04 10396   0.381E-02    0.105E-02
RMM:  41    -0.637425411545E+03   -0.14160E-04   -0.26491E-04 10363   0.362E-02    0.902E-03
RMM:  42    -0.637425422404E+03   -0.10859E-04   -0.22492E-04 10008   0.347E-02    0.108E-02
RMM:  43    -0.637425430186E+03   -0.77818E-05   -0.19689E-04  9756   0.333E-02    0.112E-02
RMM:  44    -0.637425435225E+03   -0.50393E-05   -0.16951E-04  9514   0.321E-02    0.113E-02
RMM:  45    -0.637425438286E+03   -0.30613E-05   -0.15107E-04  9440   0.311E-02    0.115E-02
RMM:  46    -0.637425439256E+03   -0.96932E-06   -0.13042E-04  9231   0.302E-02    0.119E-02
RMM:  47    -0.637425438495E+03    0.76045E-06   -0.11771E-04  9203   0.295E-02    0.120E-02
RMM:  48    -0.637425436195E+03    0.23000E-05   -0.10319E-04  9169   0.287E-02    0.125E-02
RMM:  49    -0.637425432364E+03    0.38309E-05   -0.91579E-05  8888   0.281E-02
   3 F= -.63742543E+03 E0= -.63733076E+03  d E =-.182240E+03
       N       E                     dE             d eps       ncg     rms          rms(c)
DAV:   1    -0.639729556248E+03   -0.23041E+01   -0.38319E+01 10472   0.194E+01    0.121E+01
RMM:   2    -0.655807565394E+03   -0.16078E+02   -0.29468E+01  9824   0.136E+01    0.450E+01
RMM:   3    -0.638770284519E+03    0.17037E+02   -0.62242E+00  9881   0.729E+00    0.866E+00
RMM:   4    -0.638417770469E+03    0.35251E+00   -0.11708E+00 12281   0.254E+00    0.728E+00
RMM:   5    -0.638020831766E+03    0.39694E+00   -0.53716E-01 11638   0.178E+00    0.315E+00
RMM:   6    -0.637988517130E+03    0.32315E-01   -0.36204E-01 11969   0.139E+00    0.383E+00
RMM:   7    -0.637908080145E+03    0.80437E-01   -0.15975E-01 12036   0.949E-01    0.188E+00
RMM:   8    -0.637886490314E+03    0.21590E-01   -0.58628E-02 12953   0.563E-01    0.687E-01
RMM:   9    -0.637888022381E+03   -0.15321E-02   -0.20511E-02 14046   0.303E-01    0.962E-01
RMM:  10    -0.637883561931E+03    0.44604E-02   -0.72076E-03 13479   0.209E-01    0.364E-01
RMM:  11    -0.637883363271E+03    0.19866E-03   -0.43178E-03 14555   0.126E-01    0.322E-01
RMM:  12    -0.637883421882E+03   -0.58611E-04   -0.23052E-03 14549   0.963E-02    0.253E-01
RMM:  13    -0.637883622445E+03   -0.20056E-03   -0.18228E-03 14720   0.840E-02    0.129E-01
RMM:  14    -0.637884018557E+03   -0.39611E-03   -0.14982E-03 14531   0.691E-02    0.174E-01
RMM:  15    -0.637884035043E+03   -0.16486E-04   -0.10254E-03 14263   0.563E-02    0.805E-02
RMM:  16    -0.637884156910E+03   -0.12187E-03   -0.73525E-04 14015   0.430E-02    0.514E-02
RMM:  17    -0.637884258793E+03   -0.10188E-03   -0.55608E-04 13427   0.367E-02    0.393E-02
RMM:  18    -0.637884321018E+03   -0.62225E-04   -0.39234E-04 12974   0.330E-02    0.192E-02
RMM:  19    -0.637884353296E+03   -0.32278E-04   -0.29222E-04 12594   0.278E-02    0.148E-02
RMM:  20    -0.637884372738E+03   -0.19442E-04   -0.21369E-04 12177   0.240E-02    0.784E-03
RMM:  21    -0.637884383264E+03   -0.10526E-04   -0.13495E-04 11566   0.200E-02    0.613E-03
RMM:  22    -0.637884389801E+03   -0.65372E-05   -0.87853E-05 10887   0.168E-02
   4 F= -.63788439E+03 E0= -.63779253E+03  d E =-.182699E+03
       N       E                     dE             d eps       ncg     rms          rms(c)
DAV:   1    -0.638208293025E+03   -0.32391E+00   -0.58462E+00  9996   0.760E+00    0.496E+00
RMM:   2    -0.641162039745E+03   -0.29537E+01   -0.42618E+00 10053   0.516E+00    0.207E+01
RMM:   3    -0.638125118585E+03    0.30369E+01   -0.10893E+00  9791   0.302E+00    0.452E+00
RMM:   4    -0.638001322386E+03    0.12380E+00   -0.20868E-01 12103   0.108E+00    0.285E+00
RMM:   5    -0.637942272447E+03    0.59050E-01   -0.87224E-02 11684   0.729E-01    0.124E+00
RMM:   6    -0.637950837213E+03   -0.85648E-02   -0.57052E-02 12096   0.548E-01    0.206E+00
RMM:   7    -0.637925661463E+03    0.25176E-01   -0.28668E-02 11285   0.427E-01    0.619E-01
RMM:   8    -0.637923695782E+03    0.19657E-02   -0.10563E-02 12994   0.233E-01    0.445E-01
RMM:   9    -0.637923389774E+03    0.30601E-03   -0.35129E-03 13946   0.128E-01    0.373E-01
RMM:  10    -0.637922647235E+03    0.74254E-03   -0.13447E-03 13398   0.861E-02    0.109E-01
RMM:  11    -0.637922708401E+03   -0.61166E-04   -0.67975E-04 13857   0.501E-02    0.118E-01
RMM:  12    -0.637922726536E+03   -0.18134E-04   -0.39885E-04 13670   0.395E-02    0.829E-02
RMM:  13    -0.637922809644E+03   -0.83108E-04   -0.33989E-04 13598   0.346E-02    0.460E-02
RMM:  14    -0.637922870490E+03   -0.60846E-04   -0.24883E-04 12440   0.267E-02    0.599E-02
RMM:  15    -0.637922892863E+03   -0.22372E-04   -0.17465E-04 11797   0.231E-02    0.374E-02
RMM:  16    -0.637922915209E+03   -0.22346E-04   -0.12911E-04 10934   0.193E-02    0.218E-02
RMM:  17    -0.637922937149E+03   -0.21940E-04   -0.97519E-05 10536   0.167E-02    0.150E-02
RMM:  18    -0.637922949119E+03   -0.11970E-04   -0.63624E-05  9461   0.150E-02    0.704E-03
RMM:  19    -0.637922955261E+03   -0.61419E-05   -0.48386E-05  9441   0.137E-02
   5 F= -.63792296E+03 E0= -.63783217E+03  d E =-.182737E+03
       N       E                     dE             d eps       ncg     rms          rms(c)
DAV:   1    -0.636918905367E+03    0.10040E+01   -0.58168E+02  8624   0.773E+01    0.553E+00
RMM:   2    -0.641582441786E+03   -0.46635E+01   -0.36390E+01 12668   0.182E+01    0.153E+01
RMM:   3    -0.640792008901E+03    0.79043E+00   -0.92367E+00 13752   0.738E+00    0.646E+00
RMM:   4    -0.640685369053E+03    0.10664E+00   -0.18525E+00 14065   0.314E+00    0.495E+00
RMM:   5    -0.640486903800E+03    0.19847E+00   -0.65860E-01 14063   0.184E+00    0.253E+00
RMM:   6    -0.640555480026E+03   -0.68576E-01   -0.53321E-01 13876   0.137E+00    0.446E+00
RMM:   7    -0.640465064219E+03    0.90416E-01   -0.36823E-01 13875   0.119E+00    0.203E+00
RMM:   8    -0.640443113171E+03    0.21951E-01   -0.15729E-01 14322   0.709E-01    0.108E+00
RMM:   9    -0.640446258939E+03   -0.31458E-02   -0.87700E-02 14759   0.497E-01    0.114E+00
RMM:  10    -0.640442633350E+03    0.36256E-02   -0.53246E-02 14681   0.384E-01    0.510E-01
RMM:  11    -0.640444951658E+03   -0.23183E-02   -0.35639E-02 14740   0.294E-01    0.522E-01
RMM:  12    -0.640445663194E+03   -0.71154E-03   -0.21845E-02 14776   0.235E-01    0.344E-01
RMM:  13    -0.640446112587E+03   -0.44939E-03   -0.13167E-02 14879   0.173E-01    0.165E-01
RMM:  14    -0.640447077913E+03   -0.96533E-03   -0.89844E-03 14795   0.140E-01    0.254E-01
RMM:  15    -0.640447297277E+03   -0.21936E-03   -0.56969E-03 14589   0.122E-01    0.132E-01
RMM:  16    -0.640447620243E+03   -0.32297E-03   -0.39627E-03 14842   0.969E-02    0.656E-02
RMM:  17    -0.640447768642E+03   -0.14840E-03   -0.22825E-03 14499   0.742E-02    0.341E-02
RMM:  18    -0.640447885204E+03   -0.11656E-03   -0.15801E-03 14024   0.586E-02    0.232E-02
RMM:  19    -0.640447967155E+03   -0.81951E-04   -0.99865E-04 13898   0.473E-02    0.126E-02
RMM:  20    -0.640448017696E+03   -0.50541E-04   -0.59762E-04 13721   0.382E-02    0.866E-03
RMM:  21    -0.640448050757E+03   -0.33061E-04   -0.39526E-04 13541   0.319E-02    0.378E-03
RMM:  22    -0.640448074302E+03   -0.23545E-04   -0.26529E-04 13154   0.267E-02    0.295E-03
RMM:  23    -0.640448089418E+03   -0.15116E-04   -0.17106E-04 12702   0.226E-02    0.157E-03
RMM:  24    -0.640448098692E+03   -0.92741E-05   -0.10793E-04 11410   0.196E-02    0.104E-03
RMM:  25    -0.640448104617E+03   -0.59256E-05   -0.74600E-05 10763   0.177E-02
   6 F= -.64044810E+03 E0= -.64037246E+03  d E =-.252515E+01
       N       E                     dE             d eps       ncg     rms          rms(c)
DAV:   1    -0.640231241144E+03    0.21686E+00   -0.62973E+01  9184   0.255E+01    0.180E+00
RMM:   2    -0.640722964233E+03   -0.49172E+00   -0.38263E+00 12666   0.597E+00    0.480E+00
RMM:   3    -0.640640674212E+03    0.82290E-01   -0.99798E-01 13742   0.244E+00    0.195E+00
RMM:   4    -0.640637482200E+03    0.31920E-02   -0.21307E-01 14155   0.105E+00    0.160E+00
RMM:   5    -0.640618472924E+03    0.19009E-01   -0.73628E-02 14085   0.607E-01    0.769E-01
RMM:   6    -0.640625338585E+03   -0.68657E-02   -0.52712E-02 13941   0.425E-01    0.134E+00
RMM:   7    -0.640617928141E+03    0.74104E-02   -0.35941E-02 14029   0.376E-01    0.689E-01
RMM:   8    -0.640616528833E+03    0.13993E-02   -0.17332E-02 14383   0.239E-01    0.544E-01
RMM:   9    -0.640615513322E+03    0.10155E-02   -0.98517E-03 14647   0.176E-01    0.290E-01
RMM:  10    -0.640615571564E+03   -0.58242E-04   -0.61565E-03 14496   0.128E-01    0.179E-01
RMM:  11    -0.640615943009E+03   -0.37144E-03   -0.41150E-03 14482   0.103E-01    0.203E-01
RMM:  12    -0.640615878394E+03    0.64615E-04   -0.24535E-03 14266   0.813E-02    0.743E-02
RMM:  13    -0.640616011122E+03   -0.13273E-03   -0.16425E-03 14004   0.588E-02    0.589E-02
RMM:  14    -0.640616134130E+03   -0.12301E-03   -0.10296E-03 13663   0.488E-02    0.888E-02
RMM:  15    -0.640616156312E+03   -0.22182E-04   -0.65886E-04 13478   0.422E-02    0.274E-02
RMM:  16    -0.640616191714E+03   -0.35402E-04   -0.41885E-04 13107   0.324E-02    0.138E-02
RMM:  17    -0.640616212393E+03   -0.20679E-04   -0.26607E-04 12740   0.256E-02    0.884E-03
RMM:  18    -0.640616226089E+03   -0.13696E-04   -0.16842E-04 12282   0.205E-02    0.671E-03
RMM:  19    -0.640616233860E+03   -0.77706E-05   -0.99591E-05 11493   0.171E-02
   7 F= -.64061623E+03 E0= -.64054544E+03  d E =-.269328E+01
       N       E                     dE             d eps       ncg     rms          rms(c)
DAV:   1    -0.641073920072E+03   -0.45769E+00   -0.26461E+02  8624   0.661E+01    0.184E+01
RMM:   2    -0.667707751534E+03   -0.26634E+02   -0.54972E+01 11995   0.216E+01    0.348E+01
RMM:   3    -0.642020705103E+03    0.25687E+02   -0.16005E+01 10827   0.119E+01    0.868E+00
RMM:   4    -0.641593466339E+03    0.42724E+00   -0.48654E+00 13968   0.493E+00    0.675E+00
RMM:   5    -0.641520713115E+03    0.72753E-01   -0.16098E+00 13837   0.269E+00    0.778E+00
RMM:   6    -0.641186460072E+03    0.33425E+00   -0.66173E-01 14224   0.172E+00    0.387E+00
RMM:   7    -0.641164583867E+03    0.21876E-01   -0.44029E-01 14026   0.136E+00    0.380E+00
RMM:   8    -0.641081653188E+03    0.82931E-01   -0.26237E-01 13734   0.121E+00    0.230E+00
RMM:   9    -0.641086832760E+03   -0.51796E-02   -0.13578E-01 14674   0.792E-01    0.246E+00
RMM:  10    -0.641051222099E+03    0.35611E-01   -0.67890E-02 14609   0.550E-01    0.757E-01
RMM:  11    -0.641046374493E+03    0.48476E-02   -0.33108E-02 14882   0.344E-01    0.370E-01
RMM:  12    -0.641049421562E+03   -0.30471E-02   -0.23826E-02 14720   0.275E-01    0.544E-01
RMM:  13    -0.641049145304E+03    0.27626E-03   -0.15572E-02 14934   0.226E-01    0.239E-01
RMM:  14    -0.641049920928E+03   -0.77562E-03   -0.10136E-02 15094   0.169E-01    0.158E-01
RMM:  15    -0.641050757105E+03   -0.83618E-03   -0.71183E-03 14916   0.146E-01    0.200E-01
RMM:  16    -0.641051235002E+03   -0.47790E-03   -0.52820E-03 14850   0.128E-01    0.129E-01
RMM:  17    -0.641051539352E+03   -0.30435E-03   -0.39437E-03 14870   0.111E-01    0.509E-02
RMM:  18    -0.641051766779E+03   -0.22743E-03   -0.28904E-03 14852   0.908E-02    0.414E-02
RMM:  19    -0.641051932934E+03   -0.16615E-03   -0.20996E-03 14311   0.762E-02    0.287E-02
RMM:  20    -0.641052061505E+03   -0.12857E-03   -0.14869E-03 13931   0.636E-02    0.171E-02
RMM:  21    -0.641052149967E+03   -0.88461E-04   -0.10090E-03 13768   0.537E-02    0.883E-03
RMM:  22    -0.641052218681E+03   -0.68715E-04   -0.76983E-04 13589   0.458E-02    0.624E-03
RMM:  23    -0.641052267164E+03   -0.48483E-04   -0.54623E-04 13411   0.396E-02    0.312E-03
RMM:  24    -0.641052304467E+03   -0.37302E-04   -0.40992E-04 13079   0.342E-02    0.346E-03
RMM:  25    -0.641052331508E+03   -0.27041E-04   -0.29787E-04 12327   0.299E-02    0.258E-03
RMM:  26    -0.641052351962E+03   -0.20454E-04   -0.22907E-04 11827   0.266E-02    0.185E-03
RMM:  27    -0.641052367063E+03   -0.15101E-04   -0.17387E-04 11105   0.239E-02    0.122E-03
RMM:  28    -0.641052378444E+03   -0.11381E-04   -0.13610E-04 10666   0.220E-02    0.162E-03
RMM:  29    -0.641052386991E+03   -0.85464E-05   -0.10645E-04 10031   0.202E-02    0.784E-04
RMM:  30    -0.641052393594E+03   -0.66030E-05   -0.85972E-05  9668   0.191E-02
   8 F= -.64105239E+03 E0= -.64098387E+03  d E =-.436160E+00
       N       E                     dE             d eps       ncg     rms          rms(c)
DAV:   1    -0.641072275945E+03   -0.19889E-01   -0.87566E+00  9408   0.124E+01    0.302E+00
RMM:   2    -0.642052443309E+03   -0.98017E+00   -0.21843E+00 10316   0.446E+00    0.105E+01
RMM:   3    -0.641125253904E+03    0.92719E+00   -0.63824E-01 10535   0.247E+00    0.233E+00
RMM:   4    -0.641102993845E+03    0.22260E-01   -0.16584E-01 14303   0.979E-01    0.160E+00
RMM:   5    -0.641085820181E+03    0.17174E-01   -0.44774E-02 13163   0.510E-01    0.110E+00
RMM:   6    -0.641081292676E+03    0.45275E-02   -0.24620E-02 13679   0.344E-01    0.914E-01
RMM:   7    -0.641076048536E+03    0.52441E-02   -0.17548E-02 13534   0.315E-01    0.516E-01
RMM:   8    -0.641078307656E+03   -0.22591E-02   -0.10609E-02 13948   0.227E-01    0.786E-01
RMM:   9    -0.641074523474E+03    0.37842E-02   -0.44202E-03 13978   0.158E-01    0.234E-01
RMM:  10    -0.641074506249E+03    0.17226E-04   -0.21846E-03 14118   0.907E-02    0.217E-01
RMM:  11    -0.641074241245E+03    0.26500E-03   -0.11007E-03 13737   0.661E-02    0.547E-02
RMM:  12    -0.641074325544E+03   -0.84300E-04   -0.74646E-04 13570   0.454E-02    0.567E-02
RMM:  13    -0.641074381895E+03   -0.56351E-04   -0.46839E-04 13320   0.382E-02    0.606E-02
RMM:  14    -0.641074396181E+03   -0.14286E-04   -0.29992E-04 12654   0.310E-02    0.261E-02
RMM:  15    -0.641074425100E+03   -0.28919E-04   -0.22109E-04 12237   0.254E-02    0.189E-02
RMM:  16    -0.641074449866E+03   -0.24766E-04   -0.17230E-04 12104   0.223E-02    0.125E-02
RMM:  17    -0.641074463122E+03   -0.13256E-04   -0.10948E-04 11647   0.191E-02    0.914E-03
RMM:  18    -0.641074468386E+03   -0.52644E-05   -0.64522E-05 10159   0.158E-02
   9 F= -.64107447E+03 E0= -.64100588E+03  d E =-.458235E+00
       N       E                     dE             d eps       ncg     rms          rms(c)
DAV:   1    -0.638175486379E+03    0.28990E+01   -0.19688E+02  8624   0.607E+01    0.397E+00
RMM:   2    -0.641472844653E+03   -0.32974E+01   -0.28331E+01 12009   0.147E+01    0.105E+01
RMM:   3    -0.641647633376E+03   -0.17479E+00   -0.89917E+00 13807   0.625E+00    0.412E+00
RMM:   4    -0.641623038111E+03    0.24595E-01   -0.10285E+00 14342   0.221E+00    0.305E+00
RMM:   5    -0.641549929445E+03    0.73109E-01   -0.27670E-01 13882   0.123E+00    0.137E+00
RMM:   6    -0.641553793252E+03   -0.38638E-02   -0.16087E-01 14149   0.747E-01    0.154E+00
RMM:   7    -0.641550966938E+03    0.28263E-02   -0.10994E-01 14031   0.656E-01    0.139E+00
RMM:   8    -0.641537424125E+03    0.13543E-01   -0.63602E-02 14310   0.479E-01    0.560E-01
RMM:   9    -0.641539301862E+03   -0.18777E-02   -0.34005E-02 14747   0.308E-01    0.555E-01
RMM:  10    -0.641539778914E+03   -0.47705E-03   -0.20632E-02 14711   0.243E-01    0.376E-01
RMM:  11    -0.641540589020E+03   -0.81011E-03   -0.14099E-02 14730   0.189E-01    0.328E-01
RMM:  12    -0.641540636027E+03   -0.47007E-04   -0.84616E-03 14658   0.150E-01    0.129E-01
RMM:  13    -0.641541152570E+03   -0.51654E-03   -0.57309E-03 14723   0.114E-01    0.123E-01
RMM:  14    -0.641541435280E+03   -0.28271E-03   -0.37213E-03 14343   0.934E-02    0.894E-02
RMM:  15    -0.641541667206E+03   -0.23193E-03   -0.24167E-03 14379   0.760E-02    0.599E-02
RMM:  16    -0.641541811001E+03   -0.14380E-03   -0.15696E-03 14327   0.636E-02    0.222E-02
RMM:  17    -0.641541902691E+03   -0.91690E-04   -0.10956E-03 13978   0.517E-02    0.135E-02
RMM:  18    -0.641541961993E+03   -0.59303E-04   -0.72878E-04 13575   0.423E-02    0.107E-02
RMM:  19    -0.641542003759E+03   -0.41766E-04   -0.48849E-04 13243   0.349E-02    0.863E-03
RMM:  20    -0.641542031682E+03   -0.27923E-04   -0.32186E-04 12996   0.297E-02    0.442E-03
RMM:  21    -0.641542050807E+03   -0.19125E-04   -0.22031E-04 12410   0.249E-02    0.271E-03
RMM:  22    -0.641542063224E+03   -0.12417E-04   -0.14713E-04 11486   0.216E-02    0.120E-03
RMM:  23    -0.641542071202E+03   -0.79781E-05   -0.98912E-05 10319   0.192E-02
  10 F= -.64154207E+03 E0= -.64147957E+03  d E =-.467603E+00
       N       E                     dE             d eps       ncg     rms          rms(c)
DAV:   1    -0.641190915799E+03    0.35115E+00   -0.22414E+01  9072   0.209E+01    0.133E+00
RMM:   2    -0.641552961065E+03   -0.36205E+00   -0.32225E+00 11924   0.494E+00    0.311E+00
RMM:   3    -0.641590672387E+03   -0.37711E-01   -0.10325E+00 13930   0.212E+00    0.140E+00
RMM:   4    -0.641587124130E+03    0.35483E-02   -0.11234E-01 14309   0.732E-01    0.961E-01
RMM:   5    -0.641580505494E+03    0.66186E-02   -0.32308E-02 14102   0.408E-01    0.466E-01
RMM:   6    -0.641580848109E+03   -0.34261E-03   -0.17826E-02 14076   0.250E-01    0.523E-01
RMM:   7    -0.641580977986E+03   -0.12988E-03   -0.12470E-02 14013   0.220E-01    0.529E-01
RMM:   8    -0.641579249885E+03    0.17281E-02   -0.76938E-03 14262   0.172E-01    0.238E-01
RMM:   9    -0.641579292327E+03   -0.42442E-04   -0.41871E-03 14479   0.111E-01    0.179E-01
RMM:  10    -0.641579347392E+03   -0.55065E-04   -0.25132E-03 14276   0.863E-02    0.101E-01
RMM:  11    -0.641579462301E+03   -0.11491E-03   -0.17180E-03 14129   0.674E-02    0.869E-02
RMM:  12    -0.641579518245E+03   -0.55943E-04   -0.10738E-03 13675   0.535E-02    0.523E-02
RMM:  13    -0.641579575816E+03   -0.57572E-04   -0.70590E-04 13272   0.414E-02    0.360E-02
RMM:  14    -0.641579617846E+03   -0.42030E-04   -0.46305E-04 12827   0.335E-02    0.318E-02
RMM:  15    -0.641579646848E+03   -0.29001E-04   -0.30077E-04 12412   0.284E-02    0.232E-02
RMM:  16    -0.641579668230E+03   -0.21382E-04   -0.19690E-04 12189   0.239E-02    0.772E-03
RMM:  17    -0.641579679791E+03   -0.11561E-04   -0.13414E-04 11614   0.201E-02    0.440E-03
RMM:  18    -0.641579685847E+03   -0.60555E-05   -0.83560E-05 10726   0.164E-02
  11 F= -.64157969E+03 E0= -.64151937E+03  d E =-.505217E+00
       N       E                     dE             d eps       ncg     rms          rms(c)
DAV:   1    -0.640544872090E+03    0.10348E+01   -0.10511E+02  8624   0.405E+01    0.223E+00
RMM:   2    -0.641581118277E+03   -0.10362E+01   -0.10681E+01 11806   0.917E+00    0.301E+00
RMM:   3    -0.641882235009E+03   -0.30112E+00   -0.33939E+00 13924   0.402E+00    0.258E+00
RMM:   4    -0.641886460791E+03   -0.42258E-02   -0.42563E-01 14198   0.144E+00    0.169E+00
RMM:   5    -0.641872280850E+03    0.14180E-01   -0.12186E-01 14537   0.673E-01    0.903E-01
RMM:   6    -0.641871108130E+03    0.11727E-02   -0.56435E-02 14376   0.417E-01    0.720E-01
RMM:   7    -0.641871967719E+03   -0.85959E-03   -0.38143E-02 13825   0.378E-01    0.816E-01
RMM:   8    -0.641868570691E+03    0.33970E-02   -0.23864E-02 13965   0.301E-01    0.365E-01
RMM:   9    -0.641868593859E+03   -0.23168E-04   -0.12275E-02 14313   0.199E-01    0.225E-01
RMM:  10    -0.641868730452E+03   -0.13659E-03   -0.73750E-03 14629   0.146E-01    0.155E-01
RMM:  11    -0.641868910801E+03   -0.18035E-03   -0.51677E-03 14123   0.118E-01    0.949E-02
RMM:  12    -0.641869177249E+03   -0.26645E-03   -0.31277E-03 14393   0.861E-02    0.115E-01
RMM:  13    -0.641869247926E+03   -0.70676E-04   -0.19577E-03 14035   0.674E-02    0.432E-02
RMM:  14    -0.641869358230E+03   -0.11030E-03   -0.13095E-03 13992   0.513E-02    0.426E-02
RMM:  15    -0.641869418785E+03   -0.60555E-04   -0.78539E-04 13561   0.415E-02    0.281E-02
RMM:  16    -0.641869455107E+03   -0.36322E-04   -0.49106E-04 13199   0.335E-02    0.122E-02
RMM:  17    -0.641869482228E+03   -0.27121E-04   -0.32149E-04 12743   0.274E-02    0.756E-03
RMM:  18    -0.641869500124E+03   -0.17896E-04   -0.20693E-04 11989   0.228E-02    0.507E-03
RMM:  19    -0.641869511038E+03   -0.10914E-04   -0.13200E-04 11221   0.193E-02    0.270E-03
RMM:  20    -0.641869517172E+03   -0.61345E-05   -0.78130E-05  9834   0.167E-02
  12 F= -.64186952E+03 E0= -.64181510E+03  d E =-.289831E+00
       N       E                     dE             d eps       ncg     rms          rms(c)
DAV:   1    -0.641667730062E+03    0.20178E+00   -0.18506E+01  9408   0.171E+01    0.914E-01
RMM:   2    -0.641841661653E+03   -0.17393E+00   -0.18569E+00 11964   0.377E+00    0.928E-01
RMM:   3    -0.641903884288E+03   -0.62223E-01   -0.60523E-01 13979   0.167E+00    0.110E+00
RMM:   4    -0.641902952008E+03    0.93228E-03   -0.68439E-02 14130   0.592E-01    0.685E-01
RMM:   5    -0.641900956555E+03    0.19955E-02   -0.21982E-02 14383   0.287E-01    0.369E-01
RMM:   6    -0.641900766895E+03    0.18966E-03   -0.97683E-03 14162   0.178E-01    0.294E-01
RMM:   7    -0.641900766808E+03    0.87239E-07   -0.67814E-03 13644   0.165E-01    0.308E-01
RMM:   8    -0.641900323570E+03    0.44324E-03   -0.41080E-03 13763   0.125E-01    0.142E-01
RMM:   9    -0.641900404142E+03   -0.80572E-04   -0.21796E-03 13938   0.840E-02    0.115E-01
RMM:  10    -0.641900388586E+03    0.15556E-04   -0.12960E-03 13626   0.636E-02    0.640E-02
RMM:  11    -0.641900433097E+03   -0.44511E-04   -0.91416E-04 13153   0.498E-02    0.610E-02
RMM:  12    -0.641900468208E+03   -0.35110E-04   -0.57932E-04 12773   0.388E-02    0.518E-02
RMM:  13    -0.641900477897E+03   -0.96894E-05   -0.35546E-04 12267   0.299E-02    0.219E-02
RMM:  14    -0.641900495861E+03   -0.17964E-04   -0.23688E-04 11879   0.233E-02    0.149E-02
RMM:  15    -0.641900506317E+03   -0.10456E-04   -0.13813E-04 11180   0.189E-02    0.826E-03
RMM:  16    -0.641900512642E+03   -0.63251E-05   -0.85220E-05 10573   0.156E-02
  13 F= -.64190051E+03 E0= -.64184874E+03  d E =-.320827E+00
       N       E                     dE             d eps       ncg     rms          rms(c)
DAV:   1    -0.641989885065E+03   -0.89379E-01   -0.40604E+01  9016   0.240E+01    0.550E+00
RMM:   2    -0.644328352004E+03   -0.23385E+01   -0.64363E+00 11330   0.752E+00    0.135E+01
RMM:   3    -0.642084448374E+03    0.22439E+01   -0.17871E+00 10637   0.424E+00    0.276E+00
RMM:   4    -0.642088768537E+03   -0.43202E-02   -0.56434E-01 14123   0.181E+00    0.299E+00
RMM:   5    -0.642021513444E+03    0.67255E-01   -0.18011E-01 13134   0.993E-01    0.147E+00
RMM:   6    -0.642027856685E+03   -0.63432E-02   -0.10773E-01 13651   0.697E-01    0.188E+00
RMM:   7    -0.642006289165E+03    0.21568E-01   -0.57368E-02 13905   0.587E-01    0.727E-01
RMM:   8    -0.642007845963E+03   -0.15568E-02   -0.32274E-02 14445   0.351E-01    0.784E-01
RMM:   9    -0.642003556877E+03    0.42891E-02   -0.15324E-02 14519   0.254E-01    0.240E-01
RMM:  10    -0.642003624583E+03   -0.67706E-04   -0.79164E-03 14622   0.147E-01    0.116E-01
RMM:  11    -0.642004149783E+03   -0.52520E-03   -0.52833E-03 14845   0.108E-01    0.151E-01
RMM:  12    -0.642004328450E+03   -0.17867E-03   -0.30321E-03 14557   0.883E-02    0.775E-02
RMM:  13    -0.642004519972E+03   -0.19152E-03   -0.20727E-03 14517   0.689E-02    0.589E-02
RMM:  14    -0.642004653468E+03   -0.13350E-03   -0.12999E-03 13827   0.573E-02    0.646E-02
RMM:  15    -0.642004708989E+03   -0.55521E-04   -0.85412E-04 13544   0.469E-02    0.284E-02
RMM:  16    -0.642004763691E+03   -0.54701E-04   -0.59647E-04 13223   0.380E-02    0.173E-02
RMM:  17    -0.642004792823E+03   -0.29132E-04   -0.38270E-04 13014   0.319E-02    0.737E-03
RMM:  18    -0.642004816623E+03   -0.23800E-04   -0.26639E-04 12766   0.257E-02    0.650E-03
RMM:  19    -0.642004831527E+03   -0.14904E-04   -0.16957E-04 12567   0.212E-02    0.461E-03
RMM:  20    -0.642004840420E+03   -0.88934E-05   -0.10263E-04 11485   0.175E-02    0.198E-03
RMM:  21    -0.642004845146E+03   -0.47261E-05   -0.59051E-05 10243   0.153E-02
  14 F= -.64200485E+03 E0= -.64195251E+03  d E =-.104333E+00
       N       E                     dE             d eps       ncg     rms          rms(c)
DAV:   1    -0.642006012950E+03   -0.11725E-02   -0.39356E-01 10864   0.237E+00    0.522E-01
RMM:   2    -0.642027906801E+03   -0.21894E-01   -0.64899E-02 10835   0.762E-01    0.149E+00
RMM:   3    -0.642007982210E+03    0.19925E-01   -0.17293E-02 10578   0.415E-01    0.455E-01
RMM:   4    -0.642006727037E+03    0.12552E-02   -0.52196E-03 13957   0.181E-01    0.228E-01
RMM:   5    -0.642006261823E+03    0.46521E-03   -0.18232E-03 12977   0.975E-02    0.150E-01
RMM:   6    -0.642006279725E+03   -0.17902E-04   -0.97410E-04 13180   0.682E-02    0.176E-01
RMM:   7    -0.642006076330E+03    0.20339E-03   -0.56350E-04 12931   0.602E-02    0.663E-02
RMM:   8    -0.642006093982E+03   -0.17652E-04   -0.26896E-04 12076   0.336E-02    0.738E-02
RMM:   9    -0.642006055933E+03    0.38049E-04   -0.11651E-04 10889   0.253E-02    0.204E-02
RMM:  10    -0.642006061985E+03   -0.60522E-05   -0.60152E-05  9696   0.150E-02
  15 F= -.64200606E+03 E0= -.64195379E+03  d E =-.105549E+00
       N       E                     dE             d eps       ncg     rms          rms(c)
DAV:   1    -0.641870104603E+03    0.13595E+00   -0.33356E+01  9016   0.223E+01    0.350E+00
RMM:   2    -0.642813310340E+03   -0.94321E+00   -0.44096E+00 11226   0.636E+00    0.896E+00
RMM:   3    -0.642141963031E+03    0.67135E+00   -0.12603E+00 11701   0.332E+00    0.298E+00
RMM:   4    -0.642108843929E+03    0.33119E-01   -0.36255E-01 14324   0.141E+00    0.185E+00
RMM:   5    -0.642077343300E+03    0.31501E-01   -0.10556E-01 13439   0.737E-01    0.884E-01
RMM:   6    -0.642078476222E+03   -0.11329E-02   -0.59815E-02 13598   0.511E-01    0.114E+00
RMM:   7    -0.642073745396E+03    0.47308E-02   -0.36015E-02 13956   0.431E-01    0.747E-01
RMM:   8    -0.642071289146E+03    0.24563E-02   -0.17373E-02 14484   0.267E-01    0.452E-01
RMM:   9    -0.642070449054E+03    0.84009E-03   -0.89629E-03 14571   0.175E-01    0.193E-01
RMM:  10    -0.642070706619E+03   -0.25757E-03   -0.52014E-03 14816   0.117E-01    0.148E-01
RMM:  11    -0.642070896460E+03   -0.18984E-03   -0.32110E-03 14249   0.875E-02    0.926E-02
RMM:  12    -0.642071089410E+03   -0.19295E-03   -0.20139E-03 14432   0.687E-02    0.532E-02
RMM:  13    -0.642071227716E+03   -0.13831E-03   -0.12781E-03 14109   0.553E-02    0.536E-02
RMM:  14    -0.642071304706E+03   -0.76990E-04   -0.81301E-04 13610   0.459E-02    0.354E-02
RMM:  15    -0.642071361565E+03   -0.56859E-04   -0.55463E-04 13145   0.381E-02    0.178E-02
RMM:  16    -0.642071399545E+03   -0.37980E-04   -0.38131E-04 12979   0.306E-02    0.121E-02
RMM:  17    -0.642071421900E+03   -0.22355E-04   -0.25066E-04 12580   0.253E-02    0.871E-03
RMM:  18    -0.642071435080E+03   -0.13180E-04   -0.15876E-04 12314   0.205E-02    0.402E-03
RMM:  19    -0.642071442882E+03   -0.78027E-05   -0.93322E-05 11203   0.169E-02
  16 F= -.64207144E+03 E0= -.64201975E+03  d E =-.653809E-01
       N       E                     dE             d eps       ncg     rms          rms(c)
DAV:   1    -0.642071149469E+03    0.28561E-03   -0.96916E-02 10920   0.119E+00    0.193E-01
RMM:   2    -0.642073974886E+03   -0.28254E-02   -0.12638E-02 11248   0.338E-01    0.477E-01
RMM:   3    -0.642071873565E+03    0.21013E-02   -0.35165E-03 11078   0.180E-01    0.154E-01
RMM:   4    -0.642071813113E+03    0.60452E-04   -0.11130E-03 13836   0.782E-02    0.104E-01
RMM:   5    -0.642071715498E+03    0.97614E-04   -0.27617E-04 11940   0.397E-02    0.497E-02
RMM:   6    -0.642071715473E+03    0.25204E-07   -0.15315E-04 12121   0.263E-02    0.627E-02
RMM:   7    -0.642071695257E+03    0.20216E-04   -0.92359E-05 11265   0.247E-02    0.386E-02
RMM:   8    -0.642071688315E+03    0.69415E-05   -0.53146E-05  9881   0.160E-02
  17 F= -.64207169E+03 E0= -.64201999E+03  d E =-.656263E-01
       N       E                     dE             d eps       ncg     rms          rms(c)
DAV:   1    -0.642014897604E+03    0.56798E-01   -0.73661E+00  9072   0.105E+01    0.653E-01
RMM:   2    -0.642086700594E+03   -0.71803E-01   -0.68628E-01 12418   0.237E+00    0.109E+00
RMM:   3    -0.642095590365E+03   -0.88898E-02   -0.19492E-01 13718   0.996E-01    0.584E-01
RMM:   4    -0.642097382291E+03   -0.17919E-02   -0.30504E-02 14289   0.388E-01    0.557E-01
RMM:   5    -0.642095337304E+03    0.20450E-02   -0.91333E-03 14303   0.203E-01    0.202E-01
RMM:   6    -0.642095554557E+03   -0.21725E-03   -0.47763E-03 14004   0.129E-01    0.237E-01
RMM:   7    -0.642095419726E+03    0.13483E-03   -0.32002E-03 13926   0.114E-01    0.184E-01
RMM:   8    -0.642095271720E+03    0.14801E-03   -0.17178E-03 14142   0.797E-02    0.111E-01
RMM:   9    -0.642095292757E+03   -0.21037E-04   -0.10850E-03 13540   0.557E-02    0.677E-02
RMM:  10    -0.642095309691E+03   -0.16934E-04   -0.65394E-04 13068   0.431E-02    0.295E-02
RMM:  11    -0.642095346170E+03   -0.36480E-04   -0.43424E-04 12572   0.322E-02    0.355E-02
RMM:  12    -0.642095359246E+03   -0.13076E-04   -0.25531E-04 12019   0.257E-02    0.176E-02
RMM:  13    -0.642095371799E+03   -0.12553E-04   -0.16206E-04 11501   0.200E-02    0.163E-02
RMM:  14    -0.642095378245E+03   -0.64467E-05   -0.92750E-05 10646   0.167E-02
  18 F= -.64209538E+03 E0= -.64204417E+03  d E =-.236899E-01
       N       E                     dE             d eps       ncg     rms          rms(c)
DAV:   1    -0.642071716615E+03    0.23655E-01   -0.25062E+00  9632   0.614E+00    0.381E-01
RMM:   2    -0.642096294975E+03   -0.24578E-01   -0.23426E-01 12500   0.138E+00    0.643E-01
RMM:   3    -0.642099212847E+03   -0.29179E-02   -0.66444E-02 13768   0.578E-01    0.340E-01
RMM:   4    -0.642099858037E+03   -0.64519E-03   -0.10889E-02 14317   0.230E-01    0.320E-01
RMM:   5    -0.642099193644E+03    0.66439E-03   -0.33516E-03 13934   0.122E-01    0.117E-01
RMM:   6    -0.642099277474E+03   -0.83830E-04   -0.17877E-03 13527   0.788E-02    0.135E-01
RMM:   7    -0.642099244716E+03    0.32758E-04   -0.11832E-03 13587   0.687E-02    0.106E-01
RMM:   8    -0.642099200140E+03    0.44576E-04   -0.64670E-04 13315   0.488E-02    0.612E-02
RMM:   9    -0.642099216990E+03   -0.16850E-04   -0.42504E-04 12424   0.355E-02    0.411E-02
RMM:  10    -0.642099224059E+03   -0.70690E-05   -0.25424E-04 11837   0.277E-02    0.167E-02
RMM:  11    -0.642099237642E+03   -0.13583E-04   -0.16618E-04 11345   0.213E-02    0.202E-02
RMM:  12    -0.642099242580E+03   -0.49374E-05   -0.94241E-05 10543   0.170E-02
  19 F= -.64209924E+03 E0= -.64204834E+03  d E =-.275543E-01
       N       E                     dE             d eps       ncg     rms          rms(c)
DAV:   1    -0.642072779215E+03    0.26458E-01   -0.38021E+00  8736   0.732E+00    0.616E-01
RMM:   2    -0.642107928198E+03   -0.35149E-01   -0.35315E-01 12337   0.171E+00    0.976E-01
RMM:   3    -0.642109925364E+03   -0.19972E-02   -0.10364E-01 13577   0.770E-01    0.544E-01
RMM:   4    -0.642110341707E+03   -0.41634E-03   -0.20618E-02 14171   0.322E-01    0.501E-01
RMM:   5    -0.642108439735E+03    0.19020E-02   -0.72856E-03 14054   0.187E-01    0.218E-01
RMM:   6    -0.642108510472E+03   -0.70736E-04   -0.38865E-03 13829   0.125E-01    0.233E-01
RMM:   7    -0.642108306223E+03    0.20425E-03   -0.24783E-03 13816   0.104E-01    0.152E-01
RMM:   8    -0.642108197228E+03    0.10899E-03   -0.14016E-03 14021   0.700E-02    0.102E-01
RMM:   9    -0.642108197210E+03    0.18117E-07   -0.85381E-04 13338   0.480E-02    0.399E-02
RMM:  10    -0.642108240784E+03   -0.43573E-04   -0.53546E-04 12518   0.354E-02    0.311E-02
RMM:  11    -0.642108265746E+03   -0.24962E-04   -0.33133E-04 12175   0.276E-02    0.222E-02
RMM:  12    -0.642108283449E+03   -0.17703E-04   -0.20707E-04 11807   0.221E-02    0.139E-02
RMM:  13    -0.642108295018E+03   -0.11569E-04   -0.12034E-04 11048   0.178E-02    0.129E-02
RMM:  14    -0.642108300583E+03   -0.55648E-05   -0.70408E-05 10210   0.152E-02
  20 F= -.64210830E+03 E0= -.64205782E+03  d E =-.905800E-02
       N       E                     dE             d eps       ncg     rms          rms(c)
DAV:   1    -0.642107355516E+03    0.93950E-03   -0.12320E-01 10304   0.132E+00    0.112E-01
RMM:   2    -0.642108527656E+03   -0.11721E-02   -0.11664E-02 12562   0.308E-01    0.178E-01
RMM:   3    -0.642108570118E+03   -0.42462E-04   -0.32850E-03 13630   0.137E-01    0.985E-02
RMM:   4    -0.642108603458E+03   -0.33340E-04   -0.85709E-04 13523   0.624E-02    0.918E-02
RMM:   5    -0.642108543525E+03    0.59933E-04   -0.29177E-04 12154   0.370E-02    0.387E-02
RMM:   6    -0.642108549896E+03   -0.63716E-05   -0.16203E-04 11173   0.251E-02    0.420E-02
RMM:   7    -0.642108546442E+03    0.34543E-05   -0.10940E-04 11046   0.218E-02    0.281E-02
RMM:   8    -0.642108544825E+03    0.16169E-05   -0.61060E-05  9496   0.165E-02
  21 F= -.64210854E+03 E0= -.64205812E+03  d E =-.930225E-02
       N       E                     dE             d eps       ncg     rms          rms(c)
DAV:   1    -0.642102431932E+03    0.61145E-02   -0.16501E+00  9072   0.463E+00    0.689E-01
RMM:   2    -0.642139540992E+03   -0.37109E-01   -0.18082E-01 11806   0.125E+00    0.166E+00
RMM:   3    -0.642114121975E+03    0.25419E-01   -0.49991E-02 11915   0.652E-01    0.546E-01
RMM:   4    -0.642113411981E+03    0.70999E-03   -0.14673E-02 14407   0.280E-01    0.372E-01
RMM:   5    -0.642112182805E+03    0.12292E-02   -0.49222E-03 13654   0.154E-01    0.164E-01
RMM:   6    -0.642112344547E+03   -0.16174E-03   -0.25143E-03 13772   0.104E-01    0.246E-01
RMM:   7    -0.642112102270E+03    0.24228E-03   -0.15890E-03 13795   0.877E-02    0.143E-01
RMM:   8    -0.642112002617E+03    0.99653E-04   -0.81702E-04 13509   0.551E-02    0.786E-02
RMM:   9    -0.642111989505E+03    0.13112E-04   -0.45201E-04 12578   0.388E-02    0.410E-02
RMM:  10    -0.642111995573E+03   -0.60680E-05   -0.25550E-04 11836   0.271E-02    0.241E-02
RMM:  11    -0.642112006759E+03   -0.11186E-04   -0.16460E-04 11423   0.207E-02    0.200E-02
RMM:  12    -0.642112010124E+03   -0.33652E-05   -0.93476E-05 10747   0.167E-02
  22 F= -.64211201E+03 E0= -.64206166E+03  d E =-.346530E-02
       N       E                     dE             d eps       ncg     rms          rms(c)
DAV:   1    -0.642112006444E+03    0.31471E-06   -0.49800E-03 10976   0.252E-01    0.397E-02
RMM:   2    -0.642112137735E+03   -0.13129E-03   -0.61250E-04 12696   0.694E-02    0.101E-01
RMM:   3    -0.642112043539E+03    0.94196E-04   -0.16054E-04 11270   0.362E-02    0.308E-02
RMM:   4    -0.642112041908E+03    0.16310E-05   -0.62925E-05  9907   0.188E-02
  23 F= -.64211204E+03 E0= -.64206169E+03  d E =-.349708E-02
       N       E                     dE             d eps       ncg     rms          rms(c)
DAV:   1    -0.642111501334E+03    0.54220E-03   -0.96098E-01  9184   0.331E+00    0.607E-01
RMM:   2    -0.642137761684E+03   -0.26260E-01   -0.10394E-01 11225   0.961E-01    0.154E+00
RMM:   3    -0.642115823114E+03    0.21939E-01   -0.28517E-02 11661   0.511E-01    0.488E-01
RMM:   4    -0.642114766429E+03    0.10567E-02   -0.88679E-03 14276   0.224E-01    0.297E-01
RMM:   5    -0.642113878169E+03    0.88826E-03   -0.31344E-03 13374   0.127E-01    0.146E-01
RMM:   6    -0.642113899783E+03   -0.21614E-04   -0.17814E-03 13496   0.908E-02    0.177E-01
RMM:   7    -0.642113784300E+03    0.11548E-03   -0.99769E-04 13754   0.732E-02    0.117E-01
RMM:   8    -0.642113754178E+03    0.30122E-04   -0.51178E-04 12827   0.449E-02    0.869E-02
RMM:   9    -0.642113716471E+03    0.37708E-04   -0.26249E-04 11850   0.321E-02    0.275E-02
RMM:  10    -0.642113729395E+03   -0.12924E-04   -0.14850E-04 10967   0.219E-02    0.270E-02
RMM:  11    -0.642113734087E+03   -0.46921E-05   -0.86273E-05 10234   0.173E-02
  24 F= -.64211373E+03 E0= -.64206358E+03  d E =-.169218E-02
       N       E                     dE             d eps       ncg     rms          rms(c)
DAV:   1    -0.642113754526E+03   -0.25131E-04   -0.41757E-03 10416   0.215E-01    0.397E-02
RMM:   2    -0.642113863928E+03   -0.10940E-03   -0.45832E-04 11217   0.627E-02    0.981E-02
RMM:   3    -0.642113773151E+03    0.90777E-04   -0.11701E-04 10090   0.330E-02    0.309E-02
RMM:   4    -0.642113770025E+03    0.31267E-05   -0.41392E-05  9070   0.168E-02
  25 F= -.64211377E+03 E0= -.64206359E+03  d E =-.172812E-02
       N       E                     dE             d eps       ncg     rms          rms(c)
DAV:   1    -0.642107510166E+03    0.62630E-02   -0.92927E-01  8876   0.331E+00    0.289E-01
RMM:   2    -0.642118152942E+03   -0.10643E-01   -0.73561E-02 12489   0.758E-01    0.728E-01
RMM:   3    -0.642115127548E+03    0.30254E-02   -0.20585E-02 13177   0.343E-01    0.239E-01
RMM:   4    -0.642115136945E+03   -0.93968E-05   -0.39279E-03 14247   0.139E-01    0.189E-01
RMM:   5    -0.642114853055E+03    0.28389E-03   -0.12831E-03 13303   0.774E-02    0.790E-02
RMM:   6    -0.642114932336E+03   -0.79281E-04   -0.69632E-04 13277   0.515E-02    0.128E-01
RMM:   7    -0.642114856706E+03    0.75630E-04   -0.44351E-04 13152   0.461E-02    0.702E-02
RMM:   8    -0.642114844436E+03    0.12270E-04   -0.27285E-04 12289   0.309E-02    0.535E-02
RMM:   9    -0.642114828789E+03    0.15647E-04   -0.13514E-04 10814   0.227E-02    0.131E-02
RMM:  10    -0.642114831996E+03   -0.32069E-05   -0.72674E-05  9768   0.154E-02
  26 F= -.64211483E+03 E0= -.64206461E+03  d E =-.106197E-02
       N       E                     dE             d eps       ncg     rms          rms(c)
DAV:   1    -0.642114816370E+03    0.12420E-04   -0.36769E-03 10920   0.206E-01    0.208E-02
RMM:   2    -0.642114872592E+03   -0.56222E-04   -0.32713E-04 12359   0.497E-02    0.600E-02
RMM:   3    -0.642114847637E+03    0.24955E-04   -0.10002E-04 10501   0.251E-02    0.152E-02
RMM:   4    -0.642114847697E+03   -0.60354E-07   -0.23069E-05  7852   0.143E-02
  27 F= -.64211485E+03 E0= -.64206462E+03  d E =-.107767E-02
       N       E                     dE             d eps       ncg     rms          rms(c)
DAV:   1    -0.642114296915E+03    0.55072E-03   -0.14648E-01  9408   0.130E+00    0.956E-02
RMM:   2    -0.642115539661E+03   -0.12427E-02   -0.10047E-02 12482   0.295E-01    0.221E-01
RMM:   3    -0.642115388965E+03    0.15070E-03   -0.28781E-03 13508   0.128E-01    0.793E-02
RMM:   4    -0.642115406318E+03   -0.17353E-04   -0.55292E-04 12803   0.533E-02    0.721E-02
RMM:   5    -0.642115365606E+03    0.40712E-04   -0.19781E-04 11395   0.312E-02    0.309E-02
RMM:   6    -0.642115380492E+03   -0.14886E-04   -0.11688E-04 10689   0.213E-02    0.519E-02
RMM:   7    -0.642115366277E+03    0.14215E-04   -0.77050E-05 10396   0.187E-02    0.260E-02
RMM:   8    -0.642115363080E+03    0.31972E-05   -0.38145E-05  8709   0.138E-02
  28 F= -.64211536E+03 E0= -.64206513E+03  d E =-.515383E-03
       N       E                     dE             d eps       ncg     rms          rms(c)
DAV:   1    -0.642115202279E+03    0.16400E-03   -0.28685E-02  9408   0.577E-01    0.430E-02
RMM:   2    -0.642115452278E+03   -0.25000E-03   -0.20331E-03 12662   0.132E-01    0.991E-02
RMM:   3    -0.642115419210E+03    0.33067E-04   -0.57226E-04 12944   0.572E-02    0.354E-02
RMM:   4    -0.642115426867E+03   -0.76566E-05   -0.14979E-04 10836   0.267E-02    0.335E-02
RMM:   5    -0.642115419422E+03    0.74448E-05   -0.53042E-05  9546   0.165E-02
  29 F= -.64211542E+03 E0= -.64206516E+03  d E =-.571725E-03
       N       E                     dE             d eps       ncg     rms          rms(c)
DAV:   1    -0.642115327588E+03    0.99279E-04   -0.15360E-01  9240   0.124E+00    0.211E-01
RMM:   2    -0.642118374755E+03   -0.30472E-02   -0.13064E-02 11227   0.347E-01    0.506E-01
RMM:   3    -0.642115919297E+03    0.24555E-02   -0.37319E-03 11475   0.180E-01    0.170E-01
RMM:   4    -0.642115813687E+03    0.10561E-03   -0.11272E-03 13923   0.769E-02    0.107E-01
RMM:   5    -0.642115705278E+03    0.10841E-03   -0.39807E-04 12648   0.437E-02    0.526E-02
RMM:   6    -0.642115720975E+03   -0.15697E-04   -0.21786E-04 12565   0.314E-02    0.771E-02
RMM:   7    -0.642115693754E+03    0.27221E-04   -0.12765E-04 11644   0.275E-02    0.394E-02
RMM:   8    -0.642115690464E+03    0.32904E-05   -0.70165E-05 10306   0.171E-02
  30 F= -.64211569E+03 E0= -.64206544E+03  d E =-.271042E-03
       N       E                     dE             d eps       ncg     rms          rms(c)
DAV:   1    -0.642115690017E+03    0.37368E-05   -0.38656E-04 11760   0.604E-02    0.156E-02
RMM:   2    -0.642115718836E+03   -0.28818E-04   -0.76025E-05 10382   0.212E-02    0.511E-02
RMM:   3    -0.642115694577E+03    0.24259E-04   -0.22427E-05  6274   0.134E-02    0.108E-02
RMM:   4    -0.642115694276E+03    0.30080E-06   -0.68317E-06  5229   0.844E-03
  31 F= -.64211569E+03 E0= -.64206546E+03  d E =-.274854E-03
       N       E                     dE             d eps       ncg     rms          rms(c)
DAV:   1    -0.642115183859E+03    0.51072E-03   -0.15878E-01  9016   0.128E+00    0.161E-01
RMM:   2    -0.642117659857E+03   -0.24760E-02   -0.11905E-02 11681   0.317E-01    0.434E-01
RMM:   3    -0.642116093473E+03    0.15664E-02   -0.34498E-03 11743   0.159E-01    0.131E-01
RMM:   4    -0.642116036112E+03    0.57362E-04   -0.84088E-04 13704   0.664E-02    0.858E-02
RMM:   5    -0.642115972693E+03    0.63418E-04   -0.28510E-04 11975   0.372E-02    0.445E-02
RMM:   6    -0.642115976786E+03   -0.40925E-05   -0.14972E-04 11637   0.250E-02    0.565E-02
RMM:   7    -0.642115960583E+03    0.16202E-04   -0.87975E-05 11146   0.231E-02    0.360E-02
RMM:   8    -0.642115959875E+03    0.70843E-06   -0.57575E-05  9584   0.156E-02
  32 F= -.64211596E+03 E0= -.64206571E+03  d E =-.265599E-03
       N       E                     dE             d eps       ncg     rms          rms(c)
DAV:   1    -0.642115935350E+03    0.25233E-04   -0.47238E-03  9408   0.220E-01    0.291E-02
RMM:   2    -0.642116014264E+03   -0.78914E-04   -0.38719E-04 12120   0.556E-02    0.788E-02
RMM:   3    -0.642115961291E+03    0.52973E-04   -0.10120E-04 10385   0.282E-02    0.242E-02
RMM:   4    -0.642115960217E+03    0.10741E-05   -0.39000E-05  8309   0.146E-02
  33 F= -.64211596E+03 E0= -.64206567E+03  d E =-.265941E-03
       N       E                     dE             d eps       ncg     rms          rms(c)
DAV:   1    -0.642115303185E+03    0.65811E-03   -0.12452E-01  8876   0.116E+00    0.705E-02
RMM:   2    -0.642116150509E+03   -0.84732E-03   -0.74541E-03 12208   0.246E-01    0.154E-01
RMM:   3    -0.642116187150E+03   -0.36641E-04   -0.22818E-03 13260   0.104E-01    0.621E-02
RMM:   4    -0.642116199473E+03   -0.12323E-04   -0.35030E-04 12402   0.417E-02    0.537E-02
RMM:   5    -0.642116178616E+03    0.20857E-04   -0.10734E-04 10759   0.236E-02    0.236E-02
RMM:   6    -0.642116186102E+03   -0.74863E-05   -0.60903E-05  9526   0.152E-02
  34 F= -.64211619E+03 E0= -.64206594E+03  d E =-.225886E-03
       N       E                     dE             d eps       ncg     rms          rms(c)
DAV:   1    -0.642115817678E+03    0.36094E-03   -0.57080E-02  9296   0.786E-01    0.516E-02
RMM:   2    -0.642116239243E+03   -0.42156E-03   -0.34722E-03 12299   0.167E-01    0.121E-01
RMM:   3    -0.642116219362E+03    0.19881E-04   -0.10742E-03 13022   0.731E-02    0.442E-02
RMM:   4    -0.642116229741E+03   -0.10378E-04   -0.19239E-04 11474   0.299E-02    0.418E-02
RMM:   5    -0.642116217894E+03    0.11846E-04   -0.67070E-05  9906   0.180E-02    0.175E-02
RMM:   6    -0.642116221636E+03   -0.37413E-05   -0.38395E-05  8602   0.128E-02
  35 F= -.64211622E+03 E0= -.64206596E+03  d E =-.261419E-03
       N       E                     dE             d eps       ncg     rms          rms(c)
DAV:   1    -0.642115990684E+03    0.22721E-03   -0.57541E-02  9072   0.812E-01    0.979E-02
RMM:   2    -0.642116885034E+03   -0.89435E-03   -0.46289E-03 11767   0.202E-01    0.250E-01
RMM:   3    -0.642116382798E+03    0.50224E-03   -0.13980E-03 12148   0.994E-02    0.828E-02
RMM:   4    -0.642116359229E+03    0.23569E-04   -0.33100E-04 12553   0.419E-02    0.515E-02
RMM:   5    -0.642116335458E+03    0.23771E-04   -0.11596E-04 11144   0.245E-02    0.260E-02
RMM:   6    -0.642116339972E+03   -0.45143E-05   -0.65845E-05 10376   0.170E-02
  36 F= -.64211634E+03 E0= -.64206612E+03  d E =-.118337E-03
       N       E                     dE             d eps       ncg     rms          rms(c)
DAV:   1    -0.642115838870E+03    0.49659E-03   -0.88098E-02  8904   0.101E+00    0.122E-01
RMM:   2    -0.642117101206E+03   -0.12623E-02   -0.70485E-03 11557   0.248E-01    0.287E-01
RMM:   3    -0.642116422912E+03    0.67829E-03   -0.21141E-03 12053   0.124E-01    0.104E-01
RMM:   4    -0.642116400287E+03    0.22625E-04   -0.50924E-04 13113   0.510E-02    0.694E-02
RMM:   5    -0.642116358632E+03    0.41655E-04   -0.17168E-04 11637   0.294E-02    0.339E-02
RMM:   6    -0.642116373329E+03   -0.14697E-04   -0.99366E-05 11023   0.204E-02    0.569E-02
RMM:   7    -0.642116355999E+03    0.17330E-04   -0.61414E-05 10693   0.196E-02    0.197E-02
RMM:   8    -0.642116355680E+03    0.31894E-06   -0.31325E-05  8569   0.128E-02
  37 F= -.64211636E+03 E0= -.64206616E+03  d E =-.134044E-03
       N       E                     dE             d eps       ncg     rms          rms(c)
DAV:   1    -0.642116329044E+03    0.26955E-04   -0.73648E-03  9352   0.291E-01    0.341E-02
RMM:   2    -0.642116424264E+03   -0.95221E-04   -0.57492E-04 10767   0.718E-02    0.782E-02
RMM:   3    -0.642116376334E+03    0.47930E-04   -0.16565E-04 10016   0.348E-02    0.276E-02
RMM:   4    -0.642116375433E+03    0.90066E-06   -0.42232E-05  7025   0.167E-02
  38 F= -.64211638E+03 E0= -.64206616E+03  d E =-.153798E-03
       N       E                     dE             d eps       ncg     rms          rms(c)
DAV:   1    -0.642116257058E+03    0.11928E-03   -0.21898E-02  9156   0.502E-01    0.297E-02
RMM:   2    -0.642116400320E+03   -0.14326E-03   -0.13794E-03 11218   0.102E-01    0.532E-02
RMM:   3    -0.642116426188E+03   -0.25868E-04   -0.45146E-04 12159   0.458E-02    0.238E-02
RMM:   4    -0.642116428452E+03   -0.22635E-05   -0.56891E-05  8860   0.176E-02
  39 F= -.64211643E+03 E0= -.64206623E+03  d E =-.530181E-04
       N       E                     dE             d eps       ncg     rms          rms(c)
DAV:   1    -0.642116380522E+03    0.45666E-04   -0.89292E-03  9408   0.320E-01    0.188E-02
RMM:   2    -0.642116444190E+03   -0.63669E-04   -0.60077E-04 11775   0.675E-02    0.373E-02
RMM:   3    -0.642116453918E+03   -0.97271E-05   -0.19641E-04 10275   0.289E-02    0.168E-02
RMM:   4    -0.642116453828E+03    0.89814E-07   -0.29774E-05  7270   0.140E-02
  40 F= -.64211645E+03 E0= -.64206628E+03  d E =-.783944E-04
       N       E                     dE             d eps       ncg     rms          rms(c)
DAV:   1    -0.642116210261E+03    0.24366E-03   -0.35517E-02  9072   0.639E-01    0.342E-02
RMM:   2    -0.642116438615E+03   -0.22835E-03   -0.22914E-03 11980   0.132E-01    0.541E-02
RMM:   3    -0.642116497954E+03   -0.59339E-04   -0.76028E-04 12512   0.560E-02    0.324E-02
RMM:   4    -0.642116499779E+03   -0.18246E-05   -0.93086E-05 10199   0.221E-02
  41 F= -.64211650E+03 E0= -.64206634E+03  d E =-.124345E-03
       N       E                     dE             d eps       ncg     rms          rms(c)
DAV:   1    -0.642116612003E+03   -0.11405E-03   -0.28021E-03 10584   0.192E-01    0.718E-02
RMM:   2    -0.642116907840E+03   -0.29584E-03   -0.79154E-04 10567   0.828E-02    0.180E-01
RMM:   3    -0.642116587722E+03    0.32012E-03   -0.20228E-04 10111   0.456E-02    0.570E-02
RMM:   4    -0.642116566335E+03    0.21387E-04   -0.62019E-05 10758   0.212E-02    0.330E-02
RMM:   5    -0.642116555663E+03    0.10672E-04   -0.34333E-05  9155   0.146E-02    0.185E-02
RMM:   6    -0.642116555838E+03   -0.17529E-06   -0.19319E-05  5769   0.118E-02
  42 F= -.64211656E+03 E0= -.64206640E+03  d E =-.560594E-04
       N       E                     dE             d eps       ncg     rms          rms(c)
DAV:   1    -0.642116617229E+03   -0.61566E-04   -0.22464E-03  9408   0.176E-01    0.658E-02
RMM:   2    -0.642116882620E+03   -0.26539E-03   -0.69281E-04 10225   0.777E-02    0.167E-01
RMM:   3    -0.642116598166E+03    0.28445E-03   -0.17085E-04  9466   0.427E-02    0.510E-02
RMM:   4    -0.642116580967E+03    0.17199E-04   -0.48530E-05 10279   0.197E-02    0.279E-02
RMM:   5    -0.642116572327E+03    0.86404E-05   -0.22320E-05  6282   0.124E-02
  43 F= -.64211657E+03 E0= -.64206637E+03  d E =-.725481E-04
       N       E                     dE             d eps       ncg     rms          rms(c)
DAV:   1    -0.642116726539E+03   -0.14557E-03   -0.90871E-03  9408   0.349E-01    0.136E-01
RMM:   2    -0.642118011306E+03   -0.12848E-02   -0.28908E-03 10261   0.158E-01    0.377E-01
RMM:   3    -0.642116654576E+03    0.13567E-02   -0.74960E-04 10412   0.875E-02    0.106E-01
RMM:   4    -0.642116566877E+03    0.87699E-04   -0.19680E-04 11844   0.376E-02    0.541E-02
RMM:   5    -0.642116538088E+03    0.28788E-04   -0.91563E-05 11660   0.239E-02    0.358E-02
RMM:   6    -0.642116539854E+03   -0.17655E-05   -0.59220E-05 11057   0.184E-02
  44 F= -.64211654E+03 E0= -.64206630E+03  d E =-.400753E-04
       N       E                     dE             d eps       ncg     rms          rms(c)
DAV:   1    -0.642116653405E+03   -0.11532E-03   -0.49391E-03 10220   0.256E-01    0.900E-02
RMM:   2    -0.642117190776E+03   -0.53737E-03   -0.13445E-03 10439   0.109E-01    0.245E-01
RMM:   3    -0.642116623461E+03    0.56731E-03   -0.35441E-04 10325   0.587E-02    0.743E-02
RMM:   4    -0.642116580666E+03    0.42795E-04   -0.94343E-05 10795   0.263E-02    0.389E-02
RMM:   5    -0.642116567603E+03    0.13063E-04   -0.51059E-05 10066   0.174E-02    0.256E-02
RMM:   6    -0.642116568410E+03   -0.80661E-06   -0.27824E-05  6627   0.132E-02
  45 F= -.64211657E+03 E0= -.64206634E+03  d E =-.686312E-04
       N       E                     dE             d eps       ncg     rms          rms(c)
DAV:   1    -0.642116569536E+03   -0.19332E-05   -0.36090E-04 10080   0.707E-02    0.294E-02
RMM:   2    -0.642116626855E+03   -0.57318E-04   -0.13414E-04  9062   0.318E-02    0.769E-02
RMM:   3    -0.642116567754E+03    0.59101E-04   -0.36103E-05  6444   0.192E-02    0.250E-02
RMM:   4    -0.642116563928E+03    0.38254E-05   -0.87421E-06  5047   0.924E-03
  46 F= -.64211656E+03 E0= -.64206637E+03  d E =-.641495E-04
       N       E                     dE             d eps       ncg     rms          rms(c)
DAV:   1    -0.642116563531E+03    0.42222E-05   -0.26406E-05  7420   0.214E-02    0.106E-02
RMM:   2    -0.642116570966E+03   -0.74348E-05   -0.14506E-05  5414   0.130E-02
  47 F= -.64211657E+03 E0= -.64206635E+03  d E =-.711874E-04
       N       E                     dE             d eps       ncg     rms          rms(c)
DAV:   1    -0.642116564642E+03   -0.11109E-05   -0.31927E-05  6692   0.184E-02    0.100E-02
RMM:   2    -0.642116582183E+03   -0.17541E-04   -0.17448E-05  5520   0.104E-02    0.485E-02
RMM:   3    -0.642116564730E+03    0.17453E-04   -0.96379E-06  4941   0.979E-03    0.676E-03
RMM:   4    -0.642116564419E+03    0.31123E-06   -0.11558E-06  4000   0.325E-03
  48 F= -.64211656E+03 E0= -.64206637E+03  d E =-.646400E-04
       N       E                     dE             d eps       ncg     rms          rms(c)
DAV:   1    -0.642116577796E+03   -0.13066E-04   -0.14549E-03  9408   0.138E-01    0.140E-02
RMM:   2    -0.642116601300E+03   -0.23504E-04   -0.13347E-04 11702   0.341E-02    0.377E-02
RMM:   3    -0.642116590727E+03    0.10573E-04   -0.35434E-05  5957   0.171E-02    0.113E-02
RMM:   4    -0.642116590641E+03    0.85864E-07   -0.10118E-05  5136   0.115E-02
  49 F= -.64211659E+03 E0= -.64206640E+03  d E =-.262220E-04
       N       E                     dE             d eps       ncg     rms          rms(c)
DAV:   1    -0.642116522569E+03    0.68158E-04   -0.13041E-02  8848   0.411E-01    0.412E-02
RMM:   2    -0.642116699034E+03   -0.17647E-03   -0.11786E-03 12583   0.102E-01    0.984E-02
RMM:   3    -0.642116636739E+03    0.62295E-04   -0.32975E-04 12502   0.483E-02    0.342E-02
RMM:   4    -0.642116637382E+03   -0.64356E-06   -0.91488E-05 10350   0.216E-02
  50 F= -.64211664E+03 E0= -.64206645E+03  d E =-.729636E-04
       N       E                     dE             d eps       ncg     rms          rms(c)
DAV:   1    -0.642116674386E+03   -0.37647E-04   -0.14661E-03  9996   0.130E-01    0.581E-02
RMM:   2    -0.642116857752E+03   -0.18337E-03   -0.45699E-04 10357   0.626E-02    0.144E-01
RMM:   3    -0.642116655244E+03    0.20251E-03   -0.11885E-04  9522   0.342E-02    0.451E-02
RMM:   4    -0.642116642144E+03    0.13100E-04   -0.43458E-05 10171   0.169E-02    0.270E-02
RMM:   5    -0.642116636315E+03    0.58290E-05   -0.25107E-05  6952   0.125E-02
  51 F= -.64211664E+03 E0= -.64206644E+03  d E =0.106751E-05
       N       E                     dE             d eps       ncg     rms          rms(c)
DAV:   1    -0.642116641677E+03    0.46713E-06   -0.36498E-04  9968   0.661E-02    0.319E-02
RMM:   2    -0.642116729250E+03   -0.87573E-04   -0.15659E-04  8980   0.342E-02    0.997E-02
RMM:   3    -0.642116639695E+03    0.89555E-04   -0.45455E-05  6972   0.208E-02    0.259E-02
RMM:   4    -0.642116634560E+03    0.51349E-05   -0.10385E-05  5253   0.954E-03
  52 F= -.64211663E+03 E0= -.64206644E+03  d E =0.282272E-05
       N       E                     dE             d eps       ncg     rms          rms(c)
DAV:   1    -0.642116652448E+03   -0.12753E-04   -0.15452E-03  9436   0.135E-01    0.572E-02
RMM:   2    -0.642116831152E+03   -0.17870E-03   -0.47227E-04  9910   0.638E-02    0.139E-01
RMM:   3    -0.642116635584E+03    0.19557E-03   -0.11949E-04  9085   0.351E-02    0.458E-02
RMM:   4    -0.642116622844E+03    0.12740E-04   -0.35407E-05  8059   0.160E-02    0.269E-02
RMM:   5    -0.642116617346E+03    0.54976E-05   -0.17100E-05  5369   0.122E-02
  53 F= -.64211662E+03 E0= -.64206644E+03  d E =0.200361E-04
       N       E                     dE             d eps       ncg     rms          rms(c)
DAV:   1    -0.642116639828E+03   -0.16984E-04   -0.56229E-04 10332   0.794E-02    0.323E-02
RMM:   2    -0.642116747456E+03   -0.10763E-03   -0.18706E-04  9425   0.378E-02    0.115E-01
RMM:   3    -0.642116639134E+03    0.10832E-03   -0.53028E-05  7558   0.229E-02    0.279E-02
RMM:   4    -0.642116632358E+03    0.67757E-05   -0.10542E-05  5181   0.100E-02
  54 F= -.64211663E+03 E0= -.64206644E+03  d E =0.502449E-05
       N       E                     dE             d eps       ncg     rms          rms(c)
DAV:   1    -0.642116644607E+03   -0.54735E-05   -0.18790E-04 10528   0.475E-02    0.225E-02
RMM:   2    -0.642116668398E+03   -0.23791E-04   -0.68754E-05  7892   0.234E-02    0.543E-02
RMM:   3    -0.642116641162E+03    0.27236E-04   -0.18930E-05  5535   0.135E-02    0.189E-02
RMM:   4    -0.642116638610E+03    0.25527E-05   -0.51724E-06  4414   0.769E-03
  55 F= -.64211664E+03 E0= -.64206644E+03  d E =-.122732E-05
       N       E                     dE             d eps       ncg     rms          rms(c)
DAV:   1    -0.642116639023E+03    0.21388E-05   -0.95148E-06  5488   0.130E-02    0.744E-03
RMM:   2    -0.642116641516E+03   -0.24923E-05   -0.62407E-06  4842   0.852E-03
  56 F= -.64211664E+03 E0= -.64206645E+03  d E =-.413348E-05
       N       E                     dE             d eps       ncg     rms          rms(c)
DAV:   1    -0.642116638362E+03    0.66146E-06   -0.64160E-04  9408   0.964E-02    0.106E-02
RMM:   2    -0.642116651838E+03   -0.13476E-04   -0.75607E-05  7966   0.233E-02    0.304E-02
RMM:   3    -0.642116645056E+03    0.67829E-05   -0.20772E-05  5429   0.131E-02
  57 F= -.64211665E+03 E0= -.64206644E+03  d E =-.353982E-05
       N       E                     dE             d eps       ncg     rms          rms(c)
DAV:   1    -0.642116642684E+03    0.91544E-05   -0.10103E-03  9128   0.121E-01    0.163E-02
RMM:   2    -0.642116667849E+03   -0.25165E-04   -0.12442E-04 10014   0.317E-02    0.425E-02
RMM:   3    -0.642116652641E+03    0.15208E-04   -0.37730E-05  5803   0.173E-02    0.140E-02
RMM:   4    -0.642116651841E+03    0.80044E-06   -0.85284E-06  4932   0.988E-03
  58 F= -.64211665E+03 E0= -.64206646E+03  d E =-.103251E-04
       N       E                     dE             d eps       ncg     rms          rms(c)
DAV:   1    -0.642116623618E+03    0.29023E-04   -0.39512E-03  9016   0.239E-01    0.256E-02
RMM:   2    -0.642116683022E+03   -0.59404E-04   -0.41395E-04 11527   0.580E-02    0.549E-02
RMM:   3    -0.642116665473E+03    0.17550E-04   -0.13392E-04  9864   0.284E-02    0.230E-02
RMM:   4    -0.642116664356E+03    0.11163E-05   -0.23907E-05  7043   0.133E-02
  59 F= -.64211666E+03 E0= -.64206647E+03  d E =-.228404E-04
       N       E                     dE             d eps       ncg     rms          rms(c)
DAV:   1    -0.642116510848E+03    0.15462E-03   -0.15846E-02  8848   0.480E-01    0.509E-02
RMM:   2    -0.642116746810E+03   -0.23596E-03   -0.16624E-03 11934   0.116E-01    0.111E-01
RMM:   3    -0.642116677183E+03    0.69626E-04   -0.53043E-04 11944   0.549E-02    0.452E-02
RMM:   4    -0.642116673033E+03    0.41506E-05   -0.98405E-05 10656   0.234E-02
  60 F= -.64211667E+03 E0= -.64206649E+03  d E =-.315170E-04
       N       E                     dE             d eps       ncg     rms          rms(c)
DAV:   1    -0.642116670859E+03    0.63242E-05   -0.38582E-03  9352   0.174E-01    0.288E-02
RMM:   2    -0.642116698390E+03   -0.27530E-04   -0.19096E-04 12347   0.397E-02    0.620E-02
RMM:   3    -0.642116675925E+03    0.22465E-04   -0.61289E-05  9968   0.203E-02    0.240E-02
RMM:   4    -0.642116673030E+03    0.28943E-05   -0.33507E-05  7571   0.131E-02
  61 F= -.64211667E+03 E0= -.64206648E+03  d E =0.231375E-08
       N       E                     dE             d eps       ncg     rms          rms(c)
DAV:   1    -0.642116665364E+03    0.10561E-04   -0.48366E-03  9352   0.194E-01    0.292E-02
RMM:   2    -0.642116726716E+03   -0.61352E-04   -0.26434E-04 12260   0.460E-02    0.794E-02
RMM:   3    -0.642116674283E+03    0.52433E-04   -0.65563E-05  9652   0.246E-02    0.172E-02
RMM:   4    -0.642116678048E+03   -0.37649E-05   -0.37542E-05  8120   0.137E-02
  62 F= -.64211668E+03 E0= -.64206649E+03  d E =-.501482E-05
       N       E                     dE             d eps       ncg     rms          rms(c)
DAV:   1    -0.642116679167E+03   -0.48841E-05   -0.24874E-04 10556   0.449E-02    0.129E-02
RMM:   2    -0.642116696807E+03   -0.17640E-04   -0.41324E-05  8808   0.163E-02    0.476E-02
RMM:   3    -0.642116679813E+03    0.16994E-04   -0.15795E-05  5453   0.120E-02    0.108E-02
RMM:   4    -0.642116679107E+03    0.70551E-06   -0.56210E-06  4729   0.704E-03
  63 F= -.64211668E+03 E0= -.64206648E+03  d E =-.105982E-05
       N       E                     dE             d eps       ncg     rms          rms(c)
DAV:   1    -0.642116692495E+03   -0.12683E-04   -0.19604E-03  9520   0.124E-01    0.213E-02
RMM:   2    -0.642116717780E+03   -0.25284E-04   -0.11253E-04 11183   0.312E-02    0.508E-02
RMM:   3    -0.642116695694E+03    0.22086E-04   -0.32055E-05  6851   0.169E-02    0.163E-02
RMM:   4    -0.642116694898E+03    0.79640E-06   -0.13187E-05  5701   0.111E-02
  64 F= -.64211669E+03 E0= -.64206650E+03  d E =-.168500E-04
       N       E                     dE             d eps       ncg     rms          rms(c)
DAV:   1    -0.642116703206E+03   -0.75120E-05   -0.78023E-03  9240   0.248E-01    0.436E-02
RMM:   2    -0.642116830358E+03   -0.12715E-03   -0.47915E-04 12006   0.636E-02    0.115E-01
RMM:   3    -0.642116716127E+03    0.11423E-03   -0.12049E-04 10325   0.337E-02    0.327E-02
RMM:   4    -0.642116712487E+03    0.36396E-05   -0.56087E-05 10191   0.179E-02
  65 F= -.64211671E+03 E0= -.64206651E+03  d E =-.344397E-04
       N       E                     dE             d eps       ncg     rms          rms(c)
DAV:   1    -0.642116673056E+03    0.43071E-04   -0.31321E-02  9072   0.497E-01    0.864E-02
RMM:   2    -0.642117151163E+03   -0.47811E-03   -0.18532E-03 12065   0.126E-01    0.222E-01
RMM:   3    -0.642116725375E+03    0.42579E-03   -0.47595E-04 11545   0.659E-02    0.654E-02
RMM:   4    -0.642116709023E+03    0.16352E-04   -0.20600E-04 11818   0.331E-02    0.487E-02
RMM:   5    -0.642116684390E+03    0.24634E-04   -0.92888E-05 10917   0.225E-02    0.215E-02
RMM:   6    -0.642116679874E+03    0.45161E-05   -0.57227E-05  9663   0.153E-02
  66 F= -.64211668E+03 E0= -.64206648E+03  d E =-.182599E-05
       N       E                     dE             d eps       ncg     rms          rms(c)
DAV:   1    -0.642116698076E+03   -0.13686E-04   -0.15278E-02  9128   0.347E-01    0.580E-02
RMM:   2    -0.642116954334E+03   -0.25626E-03   -0.87585E-04 11265   0.873E-02    0.162E-01
RMM:   3    -0.642116724904E+03    0.22943E-03   -0.22407E-04 10245   0.457E-02    0.427E-02
RMM:   4    -0.642116716787E+03    0.81171E-05   -0.76982E-05 10651   0.225E-02
  67 F= -.64211672E+03 E0= -.64206651E+03  d E =-.387392E-04
       N       E                     dE             d eps       ncg     rms          rms(c)
DAV:   1    -0.642116710611E+03    0.14293E-04   -0.13614E-03  9492   0.105E-01    0.333E-02
RMM:   2    -0.642116816543E+03   -0.10593E-03   -0.20215E-04 10863   0.370E-02    0.117E-01
RMM:   3    -0.642116707681E+03    0.10886E-03   -0.57337E-05  8053   0.234E-02    0.229E-02
RMM:   4    -0.642116704905E+03    0.27759E-05   -0.23055E-05  7159   0.114E-02
  68 F= -.64211670E+03 E0= -.64206650E+03  d E =-.268572E-04
       N       E                     dE             d eps       ncg     rms          rms(c)
DAV:   1    -0.642116703767E+03    0.39137E-05   -0.94322E-05  9576   0.291E-02    0.141E-02
RMM:   2    -0.642116722977E+03   -0.19210E-04   -0.36108E-05  6928   0.145E-02    0.474E-02
RMM:   3    -0.642116703524E+03    0.19453E-04   -0.12728E-05  5347   0.111E-02    0.110E-02
RMM:   4    -0.642116702815E+03    0.70905E-06   -0.30111E-06  4330   0.504E-03
  69 F= -.64211670E+03 E0= -.64206650E+03  d E =-.247670E-04
       N       E                     dE             d eps       ncg     rms          rms(c)
DAV:   1    -0.642116720175E+03   -0.16651E-04   -0.44623E-04  9408   0.695E-02    0.145E-02
RMM:   2    -0.642116733547E+03   -0.13372E-04   -0.50993E-05  8012   0.207E-02    0.366E-02
RMM:   3    -0.642116721210E+03    0.12336E-04   -0.14273E-05  5326   0.123E-02    0.114E-02
RMM:   4    -0.642116720583E+03    0.62725E-06   -0.38614E-06  4411   0.682E-03
  70 F= -.64211672E+03 E0= -.64206652E+03  d E =-.177685E-04
       N       E                     dE             d eps       ncg     rms          rms(c)
DAV:   1    -0.642116770520E+03   -0.49310E-04   -0.39183E-03  8904   0.207E-01    0.481E-02
RMM:   2    -0.642116903945E+03   -0.13343E-03   -0.47021E-04 10864   0.645E-02    0.117E-01
RMM:   3    -0.642116773917E+03    0.13003E-03   -0.12503E-04  9661   0.346E-02    0.374E-02
RMM:   4    -0.642116766808E+03    0.71093E-05   -0.44217E-05  9678   0.174E-02
  71 F= -.64211677E+03 E0= -.64206656E+03  d E =-.639936E-04
       N       E                     dE             d eps       ncg     rms          rms(c)
DAV:   1    -0.642116847166E+03   -0.73249E-04   -0.15618E-02  8736   0.413E-01    0.983E-02
RMM:   2    -0.642117398786E+03   -0.55162E-03   -0.18896E-03 11264   0.129E-01    0.241E-01
RMM:   3    -0.642116858787E+03    0.54000E-03   -0.51055E-04 10977   0.686E-02    0.788E-02
RMM:   4    -0.642116823677E+03    0.35110E-04   -0.17392E-04 12009   0.329E-02    0.508E-02
RMM:   5    -0.642116797247E+03    0.26430E-04   -0.76136E-05 11075   0.220E-02    0.245E-02
RMM:   6    -0.642116793650E+03    0.35970E-05   -0.50443E-05 10218   0.160E-02
  72 F= -.64211679E+03 E0= -.64206664E+03  d E =-.908355E-04
       N       E                     dE             d eps       ncg     rms          rms(c)
DAV:   1    -0.642116805996E+03   -0.87488E-05   -0.83415E-04 10416   0.111E-01    0.277E-02
RMM:   2    -0.642116901912E+03   -0.95916E-04   -0.18468E-04 11347   0.374E-02    0.112E-01
RMM:   3    -0.642116806163E+03    0.95749E-04   -0.54527E-05  8448   0.224E-02    0.146E-02
RMM:   4    -0.642116804901E+03    0.12624E-05   -0.24123E-05  6872   0.112E-02
  73 F= -.64211680E+03 E0= -.64206665E+03  d E =-.112505E-04
