HECN                                    
           1
    11.240000    0.000000    0.000000
     0.000000   11.240000    0.000000
     0.000000    0.000000   11.240000
   Ti   Mo   V    N    C    Zr   Ta
     7     6     6    13    19     7     6
Direct configuration=     1
   0.00000000  0.00000000  0.00000000
   0.25000000  0.00000000  0.25000000
   0.25000000  0.50000000  0.25000000
   0.50000000  0.50000000  0.00000000
   0.50000000  0.25000000  0.75000004
   0.00000000  0.50000000  0.50000000
   0.50000000  0.75000004  0.75000004
   0.00000000  0.25000000  0.25000000
   0.75000004  0.75000004  0.00000000
   0.00000000  0.25000000  0.75000004
   0.75000004  0.25000000  0.50000000
   0.00000000  0.75000004  0.75000004
   0.25000000  0.50000000  0.75000004
   0.25000000  0.25000000  0.00000000
   0.50000000  0.25000000  0.25000000
   0.75000004  0.00000000  0.25000000
   0.75000004  0.25000000  0.00000000
   0.25000000  0.75000004  0.00000000
   0.25000000  0.25000000  0.50000000
   0.25000000  0.25000000  0.25000000
   0.25000000  0.00000000  0.00000000
   0.00000000  0.25000000  0.00000000
   0.75000004  0.25000000  0.25000000
   0.75000004  0.00000000  0.00000000
   0.50000000  0.00000000  0.25000000
   0.00000000  0.50000000  0.25000000
   0.50000000  0.75000004  0.00000000
   0.00000000  0.00000000  0.75000004
   0.75000004  0.25000000  0.75000004
   0.75000004  0.00000000  0.50000000
   0.50000000  0.25000000  0.50000000
   0.50000000  0.00000000  0.75000004
   0.00000000  0.00000000  0.25000000
   0.50000000  0.25000000  0.00000000
   0.25000000  0.75000004  0.25000000
   0.25000000  0.50000000  0.00000000
   0.00000000  0.75000004  0.00000000
   0.75000004  0.75000004  0.25000000
   0.75000004  0.50000000  0.00000000
   0.50000000  0.50000000  0.25000000
   0.25000000  0.25000000  0.75000004
   0.25000000  0.00000000  0.50000000
   0.00000000  0.25000000  0.50000000
   0.25000000  0.75000004  0.75000004
   0.25000000  0.50000000  0.50000000
   0.00000000  0.75000004  0.50000000
   0.00000000  0.50000000  0.75000004
   0.75000004  0.75000004  0.75000004
   0.75000004  0.50000000  0.50000000
   0.50000000  0.75000004  0.50000000
   0.50000000  0.50000000  0.75000004
   0.50000000  0.00000000  0.00000000
   0.00000000  0.50000000  0.00000000
   0.50000000  0.75000004  0.25000000
   0.25000000  0.00000000  0.75000004
   0.50000000  0.00000000  0.50000000
   0.75000004  0.00000000  0.75000004
   0.25000000  0.75000004  0.50000000
   0.00000000  0.75000004  0.25000000
   0.75000004  0.50000000  0.25000000
   0.00000000  0.00000000  0.50000000
   0.50000000  0.50000000  0.50000000
   0.75000004  0.50000000  0.75000004
   0.75000004  0.75000004  0.50000000
HECN                                    
           1
     8.135639    0.002021    0.000646
     0.002021    8.148678    0.002524
     0.000646    0.002524    8.126402
   Ti   Mo   V    N    C    Zr   Ta
     7     6     6    13    19     7     6
Direct configuration=     2
   0.99964211  0.99926037  0.00170625
   0.24835103  0.99991612  0.25094569
   0.25138642  0.50011943  0.24994809
   0.49987159  0.49861727  0.99972826
   0.49866786  0.25248259  0.75115209
   0.00016522  0.49938071  0.50153946
   0.49972917  0.74757737  0.74946755
   0.99993661  0.24712971  0.25216034
   0.75257610  0.74786336  0.99988748
   0.00233962  0.25221385  0.74780228
   0.75264687  0.25262939  0.49962845
   0.00012860  0.74792873  0.75040196
   0.24995107  0.49992174  0.75023009
   0.25100962  0.25185215  0.99883277
   0.50009557  0.25169448  0.24857357
   0.75196024  0.99895590  0.24985052
   0.74884804  0.25164695  0.00032063
   0.24806680  0.74806669  0.99942311
   0.24824209  0.25051198  0.50127210
   0.24903812  0.24978226  0.25000740
   0.25176462  0.00015616  0.99840912
   0.99991405  0.25115157  0.00019495
   0.75081844  0.25270202  0.25093986
   0.74832290  0.99981473  0.99742651
   0.49939403  0.99803113  0.24975685
   0.99767064  0.50212464  0.24856331
   0.50045172  0.75200977  0.00131607
   0.99956990  0.00020271  0.74812893
   0.74976742  0.25018607  0.74920883
   0.75050649  0.99802532  0.50235218
   0.50070082  0.25050517  0.50050458
   0.50058815  0.00011190  0.75022038
   0.00018100  0.99852750  0.25230917
   0.50008974  0.24849325  0.99983617
   0.24855965  0.75007160  0.25086987
   0.24895684  0.49985041  0.99937941
   0.99905187  0.74936665  0.00181266
   0.75126665  0.74747933  0.25170578
   0.75100215  0.50063939  0.00024093
   0.50271665  0.50094173  0.25225503
   0.24902155  0.24971206  0.74996472
   0.24875963  0.99913617  0.50111542
   0.99881580  0.24768359  0.49989181
   0.24959813  0.75046044  0.74921415
   0.25222787  0.50075740  0.50045819
   0.99841482  0.75222233  0.49810036
   0.99819016  0.49975424  0.75080407
   0.75030012  0.74904460  0.74827900
   0.74814338  0.50145470  0.49981296
   0.50156288  0.74909648  0.49913118
   0.50197863  0.49990155  0.74779889
   0.50036520  0.00139557  0.00118348
   0.00023295  0.50008563  0.99886370
   0.50038214  0.74892785  0.24993839
   0.24828030  0.00010072  0.74951472
   0.49900195  0.00002802  0.49883700
   0.75177377  0.99916606  0.75049308
   0.24930982  0.74936649  0.50050012
   0.99972470  0.75252819  0.24962376
   0.74806266  0.50081848  0.24982655
   0.00155435  0.00081000  0.49784594
   0.49966653  0.50033078  0.50019144
   0.74990824  0.50153427  0.75011221
   0.75077859  0.74774294  0.50019088
HECN                                    
           1
     8.917102    0.001512    0.000484
     0.001512    8.926859    0.001889
     0.000484    0.001889    8.910190
   Ti   Mo   V    N    C    Zr   Ta
     7     6     6    13    19     7     6
Direct configuration=     3
   0.99976657  0.99951734  0.00111208
   0.24892454  0.99994521  0.25061637
   0.25090425  0.50007807  0.24996622
   0.49991613  0.49909736  0.99982272
   0.49913140  0.25162057  0.75075120
   0.00010775  0.49959593  0.50100339
   0.49982314  0.74841851  0.74965269
   0.99995847  0.24812658  0.25140784
   0.75168000  0.74860549  0.99992650
   0.00152607  0.25144511  0.74856780
   0.75172656  0.25171658  0.49975818
   0.00008370  0.74864800  0.75026180
   0.24996809  0.49994894  0.75014998
   0.25065861  0.25120899  0.99923940
   0.50006244  0.25110596  0.24907041
   0.75127842  0.99931859  0.24990251
   0.74924884  0.25107502  0.00020914
   0.24873896  0.74873777  0.99962371
   0.24885355  0.25033419  0.50082919
   0.24937263  0.24985778  0.25000477
   0.25115088  0.00010192  0.99896310
   0.99994405  0.25075172  0.00012720
   0.75053407  0.25176397  0.25061293
   0.74890610  0.99987864  0.99832248
   0.49960460  0.99871470  0.24984128
   0.99848090  0.50138655  0.24906370
   0.50029483  0.75131212  0.00085807
   0.99971945  0.00013209  0.74878042
   0.74984831  0.25012135  0.74948433
   0.75033025  0.99871129  0.50153300
   0.50045714  0.25032988  0.50032897
   0.50038361  0.00007312  0.75014369
   0.00011799  0.99903906  0.25150501
   0.50005839  0.24901642  0.99989305
   0.24906061  0.75004672  0.25056696
   0.24931961  0.49990219  0.99959544
   0.99938161  0.74958669  0.00118143
   0.75082597  0.74835489  0.25111162
   0.75065370  0.50041749  0.00015714
   0.50177198  0.50061521  0.25147005
   0.24936181  0.24981196  0.74997696
   0.24919097  0.99943613  0.50072693
   0.99922745  0.24848780  0.49992920
   0.24973791  0.75030046  0.74948782
   0.25145313  0.50049465  0.50029880
   0.99896626  0.75145035  0.49876197
   0.99881960  0.49983950  0.75052405
   0.75019563  0.74937619  0.74887814
   0.74878922  0.50094941  0.49987819
   0.50101923  0.74941026  0.49943363
   0.50129042  0.49993567  0.74856533
   0.50023834  0.00091115  0.00077157
   0.00015191  0.50005579  0.99925936
   0.50024914  0.74930017  0.24995973
   0.24887838  0.00006554  0.74968366
   0.49934903  0.00001808  0.49924191
   0.75115684  0.99945584  0.75032137
   0.24954982  0.74958647  0.50032590
   0.99982065  0.75165028  0.24975503
   0.74873652  0.50053409  0.24988698
   0.00101378  0.00052864  0.49859607
   0.49978254  0.50021592  0.50012481
   0.74994030  0.50100154  0.75007332
   0.75050763  0.74852676  0.50012420
HECN                                    
           1
     8.855303    0.001552    0.000496
     0.001552    8.865319    0.001939
     0.000496    0.001939    8.848207
   Ti   Mo   V    N    C    Zr   Ta
     7     6     6    13    19     7     6
Direct configuration=     4
   0.99975759  0.99949879  0.00115493
   0.24888316  0.99994311  0.25064012
   0.25093904  0.50008106  0.24996491
   0.49991291  0.49906270  0.99981590
   0.49909796  0.25168280  0.75078012
   0.00011190  0.49958040  0.50104205
   0.49981635  0.74835779  0.74963933
   0.99995689  0.24805463  0.25146211
   0.75174465  0.74855192  0.99992368
   0.00158477  0.25150060  0.74851260
   0.75179297  0.25178247  0.49974883
   0.00008694  0.74859608  0.75027190
   0.24996686  0.49994697  0.75015576
   0.25068394  0.25125542  0.99921008
   0.50006483  0.25114844  0.24903458
   0.75132761  0.99929241  0.24989876
   0.74921992  0.25111630  0.00021718
   0.24869046  0.74868932  0.99960923
   0.24880943  0.25034703  0.50086113
   0.24934849  0.24985233  0.25000496
   0.25119516  0.00010583  0.99892315
   0.99994188  0.25078059  0.00013208
   0.75055460  0.25183169  0.25063652
   0.74886402  0.99987402  0.99825786
   0.49958941  0.99866535  0.24983519
   0.99842244  0.50143982  0.24902761
   0.50030615  0.75136248  0.00089111
   0.99970866  0.00013718  0.74873343
   0.74984248  0.25012602  0.74946446
   0.75034297  0.99866177  0.50159208
   0.50047473  0.25034253  0.50034164
   0.50039837  0.00007592  0.75014922
   0.00012253  0.99900214  0.25156301
   0.50006065  0.24897866  0.99988895
   0.24902447  0.75004852  0.25058881
   0.24929343  0.49989845  0.99957986
   0.99935782  0.74957081  0.00122696
   0.75085776  0.74829169  0.25115447
   0.75067884  0.50043351  0.00016319
   0.50184014  0.50063880  0.25152667
   0.24933726  0.24980474  0.74997607
   0.24915985  0.99941448  0.50075494
   0.99919774  0.24842974  0.49992650
   0.24972783  0.75031201  0.74946808
   0.25150903  0.50051362  0.50031030
   0.99892648  0.75150607  0.49871426
   0.99877418  0.49983335  0.75054424
   0.75020317  0.74935225  0.74883493
   0.74874262  0.50098588  0.49987349
   0.50105846  0.74938761  0.49941181
   0.50134007  0.49993321  0.74851005
   0.50024750  0.00094612  0.00080129
   0.00015776  0.50005795  0.99923082
   0.50025874  0.74927330  0.24995819
   0.24883523  0.00006808  0.74967147
   0.49932399  0.00001879  0.49921270
   0.75120135  0.99943492  0.75033375
   0.24953250  0.74957059  0.50033846
   0.99981373  0.75171366  0.24974557
   0.74868790  0.50055462  0.24988262
   0.00105278  0.00054895  0.49854197
   0.49977417  0.50022421  0.50012962
   0.74993799  0.50103999  0.75007613
   0.75052718  0.74847018  0.50012900
HECN                                    
           1
     8.831323    0.001568    0.000501
     0.001568    8.841440    0.001959
     0.000501    0.001959    8.824156
   Ti   Mo   V    N    C    Zr   Ta
     7     6     6    13    19     7     6
Direct configuration=     5
   0.99975408  0.99949155  0.00117167
   0.24886699  0.99994229  0.25064940
   0.25095264  0.50008223  0.24996440
   0.49991165  0.49904916  0.99981324
   0.49908490  0.25170711  0.75079142
   0.00011352  0.49957433  0.50105716
   0.49981370  0.74833406  0.74963411
   0.99995627  0.24802651  0.25148331
   0.75176991  0.74853099  0.99992258
   0.00160770  0.25152228  0.74849103
   0.75181892  0.25180822  0.49974517
   0.00008820  0.74857580  0.75027585
   0.24996638  0.49994621  0.75015802
   0.25069384  0.25127356  0.99919862
   0.50006576  0.25116504  0.24902058
   0.75134683  0.99928219  0.24989729
   0.74920862  0.25113243  0.00022033
   0.24867151  0.74867039  0.99960358
   0.24879219  0.25035204  0.50087361
   0.24933906  0.24985020  0.25000503
   0.25121247  0.00010736  0.99890753
   0.99994104  0.25079187  0.00013400
   0.75056261  0.25185815  0.25064573
   0.74884758  0.99987221  0.99823261
   0.49958347  0.99864607  0.24983280
   0.99839960  0.50146063  0.24901351
   0.50031058  0.75138216  0.00090401
   0.99970444  0.00013917  0.74871507
   0.74984020  0.25012785  0.74945669
   0.75034793  0.99864243  0.50161516
   0.50048160  0.25034748  0.50034659
   0.50040414  0.00007701  0.75015138
   0.00012431  0.99898771  0.25158567
   0.50006154  0.24896390  0.99988734
   0.24901034  0.75004922  0.25059735
   0.24928320  0.49989699  0.99957377
   0.99934852  0.74956461  0.00124475
   0.75087018  0.74826700  0.25117121
   0.75068866  0.50043977  0.00016555
   0.50186678  0.50064801  0.25154879
   0.24932767  0.24980192  0.74997573
   0.24914769  0.99940602  0.50076589
   0.99918613  0.24840706  0.49992544
   0.24972389  0.75031652  0.74946037
   0.25153087  0.50052104  0.50031479
   0.99891093  0.75152784  0.49869561
   0.99875644  0.49983094  0.75055213
   0.75020611  0.74934290  0.74881804
   0.74872442  0.50100013  0.49987165
   0.50107378  0.74937876  0.49940329
   0.50135947  0.49993224  0.74848845
   0.50025107  0.00095978  0.00081290
   0.00016004  0.50005879  0.99921967
   0.50026249  0.74926279  0.24995759
   0.24881837  0.00006907  0.74966671
   0.49931420  0.00001907  0.49920129
   0.75121874  0.99942675  0.75033859
   0.24952573  0.74956439  0.50034337
   0.99981103  0.75173842  0.24974187
   0.74866890  0.50056264  0.24988092
   0.00106802  0.00055689  0.49852083
   0.49977090  0.50022745  0.50013150
   0.74993709  0.50105502  0.75007723
   0.75053481  0.74844807  0.50013088
HECN                                    
           1
     8.810770   -0.005648   -0.000804
    -0.005656    8.814728    0.001836
    -0.000803    0.001841    8.776441
   Ti   Mo   V    N    C    Zr   Ta
     7     6     6    13    19     7     6
Direct configuration=     6
   0.99930811  0.00073056  0.00467342
   0.24627455  0.00308378  0.24935363
   0.25332808  0.49688958  0.24952164
   0.49880407  0.49643905  0.99959771
   0.49687348  0.25556909  0.75340304
   0.00146755  0.49659454  0.50225578
   0.49938622  0.74457128  0.75225335
   0.00151245  0.24085080  0.25459381
   0.75713574  0.74514727  0.99967875
   0.00593905  0.25474749  0.74508643
   0.75643511  0.25613718  0.49797743
   0.99990743  0.74597069  0.75352406
   0.25185412  0.49844130  0.75157084
   0.25380530  0.25542414  0.99766195
   0.49932347  0.25317105  0.24558550
   0.75482815  0.99955361  0.24832106
   0.74576571  0.25426704  0.00152357
   0.24357523  0.74442524  0.99804234
   0.24518475  0.25134051  0.50275459
   0.25137158  0.24958090  0.25024006
   0.24541614  0.00091242  0.00463111
   0.99998669  0.24427516  0.00072896
   0.74756236  0.24892137  0.24798826
   0.75481448  0.00378232  0.00384791
   0.49968899  0.00513927  0.24915938
   0.99972824  0.50204717  0.25447082
   0.49700113  0.74627253  0.99425392
   0.99981741  0.00064308  0.75121762
   0.74625682  0.25350952  0.75208455
   0.75393106  0.99760840  0.49613028
   0.49726421  0.25397875  0.49957622
   0.50113466  0.00045227  0.75072798
   0.99917425  0.00040858  0.24801589
   0.50006014  0.25594916  0.00185728
   0.24449247  0.74998394  0.24231917
   0.25594112  0.49944676  0.00095261
   0.00313561  0.75669254  0.00094904
   0.75436726  0.75158084  0.25101236
   0.74402283  0.49678494  0.00027310
   0.49996893  0.49181393  0.24812337
   0.25033480  0.25500620  0.74947459
   0.24458112  0.00759742  0.49429353
   0.00287610  0.25197228  0.49961355
   0.25217599  0.74490480  0.75810808
   0.24778042  0.49162168  0.49849649
   0.99527781  0.74916442  0.49807985
   0.99965985  0.49936816  0.74338274
   0.74716084  0.74558533  0.74905468
   0.75268240  0.50006026  0.49986331
   0.50543317  0.74563472  0.50617481
   0.50108150  0.49963448  0.75214841
   0.50011802  0.00348002  0.00497621
   0.00276839  0.49692040  0.99949442
   0.49985905  0.74988934  0.24440182
   0.24584281  0.00187840  0.75371181
   0.50003548  0.00636751  0.49522895
   0.75396638  0.00191621  0.75341605
   0.24775638  0.74689130  0.50113945
   0.00041440  0.75706665  0.24736219
   0.74593038  0.49802954  0.24899355
   0.00149297  0.00443297  0.49436488
   0.49794477  0.49424597  0.50041923
   0.74747409  0.49961011  0.75088862
   0.75150859  0.74558449  0.50097468
HECN                                    
           1
     8.804022   -0.008018   -0.001232
    -0.008028    8.805958    0.001796
    -0.001231    0.001802    8.760775
   Ti   Mo   V    N    C    Zr   Ta
     7     6     6    13    19     7     6
Direct configuration=     7
   0.99916185  0.00113848  0.00582936
   0.24542220  0.00411763  0.24892578
   0.25410893  0.49583883  0.24937558
   0.49843886  0.49557920  0.99952649
   0.49614690  0.25684031  0.75426506
   0.00191240  0.49561362  0.50265151
   0.49924465  0.74333203  0.75311794
   0.00202278  0.23848815  0.25562065
   0.75890064  0.74403440  0.99959851
   0.00736514  0.25581075  0.74396277
   0.75795533  0.25756402  0.49739413
   0.99984739  0.74511275  0.75459630
   0.25247501  0.49794623  0.75203730
   0.25483028  0.25679182  0.99715486
   0.49907957  0.25383144  0.24445154
   0.75597380  0.99964392  0.24780090
   0.74463360  0.25529839  0.00195362
   0.24189689  0.74302587  0.99752670
   0.24399794  0.25166506  0.50337534
   0.25204039  0.24949277  0.25031775
   0.24350914  0.00117600  0.00652022
   0.99999999  0.24212911  0.00092534
   0.74657409  0.24795342  0.24711085
   0.75677944  0.00507161  0.00570186
   0.49972544  0.00727761  0.24893712
   0.00016591  0.50224070  0.25627238
   0.49591033  0.74458893  0.99205850
   0.99985484  0.00080907  0.75204373
   0.74507861  0.25462220  0.75295187
   0.75510967  0.99726881  0.49431985
   0.49620635  0.25517372  0.49932177
   0.50137519  0.00057605  0.75091835
   0.99886181  0.00087622  0.24683744
   0.50006166  0.25824953  0.00250760
   0.24300527  0.74996119  0.23958627
   0.25813209  0.49930028  0.00140809
   0.00438380  0.75904090  0.00085164
   0.75551899  0.75267308  0.25096010
   0.74182820  0.49557955  0.00030827
   0.49934182  0.48890420  0.24699249
   0.25066761  0.25672032  0.74930923
   0.24308022  0.01029372  0.49215678
   0.00409137  0.25314735  0.49951079
   0.25298191  0.74312332  0.76096284
   0.24654370  0.48868997  0.49789603
   0.99408153  0.74838513  0.49787640
   0.99995668  0.49921597  0.74101612
   0.74615768  0.74434708  0.74913264
   0.75398467  0.49975181  0.49986075
   0.50686711  0.74440295  0.50841033
   0.50099012  0.49953636  0.75335657
   0.50007512  0.00430996  0.00635055
   0.00362593  0.49588758  0.99958522
   0.49972618  0.75009554  0.24256781
   0.24486427  0.00247346  0.75504698
   0.50027437  0.00845833  0.49391772
   0.75487142  0.00273678  0.75443208
   0.24717342  0.74601053  0.50140214
   0.00061429  0.75882148  0.24657670
   0.74502844  0.49719460  0.24870048
   0.00163366  0.00570952  0.49299301
   0.49734222  0.49227568  0.50051409
   0.74666320  0.49913362  0.75115634
   0.75182832  0.74464173  0.50125326
HECN                                    
           1
     8.894878   -0.011003    0.010025
    -0.011025    8.882836    0.000007
     0.009968    0.000030    8.851991
   Ti   Mo   V    N    C    Zr   Ta
     7     6     6    13    19     7     6
Direct configuration=     8
   0.99865926  0.00459582  0.00829243
   0.24282173  0.00709235  0.24707633
   0.25550917  0.49293946  0.24903978
   0.49749786  0.49470456  0.00032435
   0.49447481  0.25720594  0.75831212
   0.00300695  0.49452996  0.50110371
   0.49925386  0.74258661  0.75447936
   0.00197181  0.23491594  0.25622750
   0.76415759  0.74149672  0.99887242
   0.01063500  0.25920230  0.74211118
   0.76190519  0.25999321  0.49497455
   0.99847865  0.74123023  0.75667263
   0.25484373  0.49647802  0.75292498
   0.25909152  0.26106161  0.99580922
   0.49770534  0.25575911  0.24016789
   0.76006444  0.00049889  0.24456222
   0.73965287  0.25823072  0.00398197
   0.23640705  0.73754401  0.99721347
   0.24025966  0.25232735  0.50611774
   0.25280970  0.24964606  0.24971973
   0.24219849  0.00341845  0.00887756
   0.00036937  0.23994900  0.00097755
   0.74520594  0.24578880  0.24598017
   0.75845330  0.00740654  0.00874488
   0.50007180  0.01001478  0.24921215
   0.99993833  0.50109745  0.25662851
   0.49508404  0.74384731  0.98928395
   0.99984993  0.00172878  0.75281101
   0.74289905  0.25496567  0.75417366
   0.75578742  0.99746041  0.49259019
   0.49482869  0.25569070  0.49984912
   0.50148341  0.00186987  0.75148770
   0.99852371  0.00042619  0.24556982
   0.49939818  0.25875840  0.00260900
   0.24481590  0.74946471  0.23789667
   0.25823225  0.49859625  0.00297804
   0.00663871  0.75799010  0.99909423
   0.75409792  0.75338535  0.25007770
   0.74281368  0.49410766  0.00074465
   0.49818034  0.48841265  0.24629112
   0.25145021  0.25616167  0.74937671
   0.24382453  0.01157286  0.49197317
   0.00642349  0.25478085  0.49986845
   0.25336723  0.74360780  0.76301158
   0.24597353  0.48666008  0.49642548
   0.99556476  0.74884334  0.49881759
   0.00007945  0.49943524  0.74157004
   0.74547670  0.74524652  0.75064354
   0.75434703  0.49969573  0.49965708
   0.50519587  0.74451914  0.50822810
   0.50030238  0.49851424  0.75379034
   0.50052356  0.00691863  0.00420968
   0.00321845  0.49505495  0.99962476
   0.49882488  0.74686719  0.24342179
   0.24574881  0.00220697  0.75529492
   0.50041812  0.00986936  0.49487580
   0.75440653  0.00337033  0.75575257
   0.24902339  0.74611052  0.50160931
   0.00049550  0.76045704  0.24569453
   0.74402972  0.49584898  0.24891254
   0.00101088  0.00721272  0.49067898
   0.49660457  0.49155846  0.49924862
   0.74559579  0.49720002  0.75176507
   0.75001863  0.74187012  0.50168878
HECN                                    
           1
     8.878165   -0.010454    0.007954
    -0.010473    8.868694    0.000336
     0.007908    0.000356    8.835212
   Ti   Mo   V    N    C    Zr   Ta
     7     6     6    13    19     7     6
Direct configuration=     9
   0.99875113  0.00396529  0.00784377
   0.24329460  0.00655011  0.24741232
   0.25525432  0.49346811  0.24910135
   0.49766943  0.49486409  0.00017891
   0.49478015  0.25713922  0.75757493
   0.00280737  0.49472757  0.50138579
   0.49925254  0.74272249  0.75423154
   0.00198144  0.23556735  0.25611714
   0.76320044  0.74195920  0.99900592
   0.01003902  0.25858369  0.74244890
   0.76118533  0.25955008  0.49541587
   0.99872857  0.74193824  0.75629445
   0.25441274  0.49674559  0.75276398
   0.25831511  0.26028277  0.99605503
   0.49795445  0.25540782  0.24094736
   0.75931886  0.00034285  0.24515276
   0.74056001  0.25769621  0.00361143
   0.23740685  0.73854401  0.99726942
   0.24094089  0.25220670  0.50561758
   0.25266949  0.24961808  0.24982878
   0.24243753  0.00300951  0.00844800
   0.00030226  0.24034653  0.00096821
   0.74545492  0.24618366  0.24618578
   0.75814910  0.00698054  0.00819118
   0.50000864  0.00951560  0.24916206
   0.99997992  0.50130593  0.25656367
   0.49523389  0.74398270  0.98978890
   0.99985094  0.00156104  0.75267129
   0.74329615  0.25490312  0.75395070
   0.75566361  0.99742549  0.49290523
   0.49507961  0.25559648  0.49975278
   0.50146376  0.00163390  0.75138403
   0.99858501  0.00050833  0.24580053
   0.49951897  0.25866564  0.00259037
   0.24448588  0.74955520  0.23820471
   0.25821441  0.49872457  0.00269227
   0.00622782  0.75818165  0.99941474
   0.75435641  0.75325558  0.25023799
   0.74263444  0.49437599  0.00066549
   0.49839168  0.48850238  0.24641856
   0.25130777  0.25626350  0.74936463
   0.24368890  0.01133957  0.49200672
   0.00599887  0.25448281  0.49980382
   0.25329751  0.74351935  0.76263867
   0.24607713  0.48703034  0.49669314
   0.99529489  0.74875966  0.49864657
   0.00005721  0.49939523  0.74146921
   0.74560098  0.74508248  0.75036828
   0.75428101  0.49970594  0.49969424
   0.50550011  0.74449806  0.50826089
   0.50042776  0.49870065  0.75371124
   0.50044127  0.00644297  0.00459944
   0.00329270  0.49520681  0.99961750
   0.49898937  0.74745593  0.24326623
   0.24558784  0.00225550  0.75525000
   0.50039208  0.00961200  0.49470136
   0.75449144  0.00325478  0.75551204
   0.24868661  0.74609217  0.50157202
   0.00051683  0.76015882  0.24585505
   0.74421169  0.49609442  0.24887375
   0.00112365  0.00693872  0.49110006
   0.49673862  0.49168934  0.49947886
   0.74579039  0.49755267  0.75165407
   0.75034839  0.74237564  0.50160917
HECN                                    
           1
     8.862590   -0.011338    0.018666
    -0.011363    8.847380    0.000266
     0.018572    0.000298    8.816322
   Ti   Mo   V    N    C    Zr   Ta
     7     6     6    13    19     7     6
Direct configuration=    10
   0.99839847  0.00798364  0.00978337
   0.24122783  0.00934751  0.24584069
   0.25636384  0.49078983  0.24906236
   0.49716829  0.49476608  0.00100420
   0.49314614  0.25708954  0.76187635
   0.00371599  0.49467384  0.49954827
   0.49963105  0.74222990  0.75550186
   0.00043347  0.23353417  0.25655408
   0.76847631  0.73970858  0.99798962
   0.01403772  0.26283127  0.74112528
   0.76607461  0.26178732  0.49170191
   0.99663877  0.73692347  0.75719843
   0.25670600  0.49522926  0.75327754
   0.26332350  0.26430397  0.99448442
   0.49675954  0.25729554  0.23608043
   0.76366390  0.00131424  0.24131340
   0.73450601  0.26029030  0.00639637
   0.23236201  0.73252591  0.99750816
   0.23677198  0.25257824  0.50939776
   0.25258174  0.24969053  0.24884676
   0.24274249  0.00575412  0.00907394
   0.00075631  0.23958114  0.00110628
   0.74462954  0.24451994  0.24603780
   0.75847184  0.00857344  0.00960235
   0.50041416  0.01080349  0.24915586
   0.99907081  0.49987518  0.25569414
   0.49549196  0.74451191  0.98897218
   0.99972243  0.00279102  0.75258355
   0.74170220  0.25448766  0.75431466
   0.75569336  0.99786779  0.49263998
   0.49473399  0.25569111  0.50065880
   0.50151605  0.00315853  0.75176325
   0.99869001  0.99904813  0.24561142
   0.49864624  0.25831617  0.00210048
   0.24610031  0.74912859  0.23809871
   0.25664081  0.49817481  0.00367349
   0.00758133  0.75559182  0.99828909
   0.75291281  0.75304568  0.24954610
   0.74474386  0.49391280  0.00113694
   0.49795266  0.48970429  0.24655684
   0.25160451  0.25467654  0.74956824
   0.24500415  0.01099162  0.49314698
   0.00752993  0.25508249  0.50018474
   0.25290095  0.74470137  0.76299049
   0.24673151  0.48708849  0.49588966
   0.99672448  0.75007027  0.49943177
   0.00007439  0.49959858  0.74311064
   0.74568359  0.74629728  0.75164354
   0.75377695  0.49986177  0.49963852
   0.50360390  0.74519366  0.50667236
   0.50000121  0.49770568  0.75323761
   0.50041300  0.00745632  0.00359247
   0.00255025  0.49412195  0.00018817
   0.49803300  0.74508813  0.24345843
   0.24598107  0.00166456  0.75550637
   0.50058180  0.01039559  0.49530114
   0.75446881  0.00358576  0.75670966
   0.24997389  0.74650691  0.50145656
   0.00068022  0.76047873  0.24588603
   0.74349147  0.49497021  0.24952653
   0.00067061  0.00752363  0.48939818
   0.49597230  0.49135155  0.49839339
   0.74443017  0.49644490  0.75187847
   0.74891820  0.73971393  0.50208360
HECN                                    
           1
     8.857307   -0.011638    0.022300
    -0.011665    8.840149    0.000242
     0.022189    0.000278    8.809914
   Ti   Mo   V    N    C    Zr   Ta
     7     6     6    13    19     7     6
Direct configuration=    11
   0.99827797  0.00935009  0.01044293
   0.24052621  0.01029871  0.24530725
   0.25674082  0.48987910  0.24904864
   0.49699764  0.49473274  0.00128497
   0.49258908  0.25707260  0.76333936
   0.00402552  0.49465559  0.49892320
   0.49975914  0.74206241  0.75593357
   0.99990717  0.23284272  0.25670326
   0.77026958  0.73894342  0.99764193
   0.01539731  0.26427582  0.74067365
   0.76773776  0.26254826  0.49043728
   0.99592804  0.73521810  0.75750660
   0.25748506  0.49471371  0.75345119
   0.26502631  0.26567157  0.99394841
   0.49635552  0.25793742  0.23442635
   0.76514211  0.00164471  0.24000636
   0.73244760  0.26117222  0.00734566
   0.23064729  0.73047925  0.99759140
   0.23535370  0.25270444  0.51068461
   0.25255233  0.24971516  0.24851295
   0.24284597  0.00668745  0.00928662
   0.00091052  0.23932088  0.00115303
   0.74434905  0.24395416  0.24598783
   0.75858099  0.00911513  0.01008198
   0.50055202  0.01124146  0.24915359
   0.99876217  0.49938861  0.25539890
   0.49558001  0.74469188  0.98869441
   0.99967883  0.00320928  0.75255377
   0.74116035  0.25434632  0.75443904
   0.75570359  0.99801819  0.49254980
   0.49461617  0.25572328  0.50096695
   0.50153371  0.00367699  0.75189216
   0.99872572  0.99855158  0.24554708
   0.49834984  0.25819730  0.00193430
   0.24664897  0.74898358  0.23806201
   0.25610562  0.49798780  0.00400772
   0.00804168  0.75471119  0.99790585
   0.75242250  0.75297425  0.24931147
   0.74546050  0.49375536  0.00129635
   0.49780345  0.49011300  0.24660404
   0.25170522  0.25413690  0.74963733
   0.24545064  0.01087335  0.49353408
   0.00805010  0.25528647  0.50031361
   0.25276608  0.74510331  0.76311026
   0.24695423  0.48710829  0.49561624
   0.99721003  0.75051600  0.49969812
   0.00007956  0.49966773  0.74366866
   0.74571118  0.74671039  0.75207705
   0.75360568  0.49991475  0.49961978
   0.50296017  0.74543014  0.50613311
   0.49985641  0.49736732  0.75307676
   0.50040384  0.00780092  0.00325015
   0.00229768  0.49375301  0.00038249
   0.49770783  0.74428291  0.24352416
   0.24611458  0.00146362  0.75559336
   0.50064605  0.01066206  0.49550496
   0.75446064  0.00369831  0.75711682
   0.25041141  0.74664798  0.50141677
   0.00073574  0.76058753  0.24589649
   0.74324641  0.49458790  0.24974875
   0.00051737  0.00772251  0.48881978
   0.49571231  0.49123666  0.49802468
   0.74396779  0.49606815  0.75195532
   0.74843189  0.73880876  0.50224547
HECN                                    
           1
     8.865263   -0.011783    0.024888
    -0.011825    8.840721    0.003020
     0.024798    0.003049    8.805229
   Ti   Mo   V    N    C    Zr   Ta