       N       E                     dE             d eps       ncg     rms          rms(c)
DAV:   1     0.384566359537E+04    0.38457E+04   -0.20690E+05  9016   0.123E+03
DAV:   2     0.646445864840E+02   -0.37810E+04   -0.36844E+04  8624   0.407E+02
DAV:   3    -0.569228205588E+03   -0.63387E+03   -0.61216E+03 13776   0.121E+02
DAV:   4    -0.635369412012E+03   -0.66141E+02   -0.64727E+02 14112   0.430E+01
DAV:   5    -0.642348749555E+03   -0.69793E+01   -0.68744E+01 16296   0.123E+01    0.765E+01
RMM:   6    -0.646562181714E+03   -0.42134E+01   -0.18284E+03 11860   0.823E+01    0.104E+02
RMM:   7    -0.493525838173E+03    0.15304E+03   -0.75603E+02 12450   0.380E+01    0.499E+01
RMM:   8    -0.471165279824E+03    0.22361E+02   -0.13884E+02 13072   0.206E+01    0.394E+01
RMM:   9    -0.468731544141E+03    0.24337E+01   -0.70773E+01 13342   0.805E+00    0.255E+01
RMM:  10    -0.468445682233E+03    0.28586E+00   -0.26984E+01 13028   0.611E+00    0.338E+01
RMM:  11    -0.468329226560E+03    0.11646E+00   -0.16764E+01 12616   0.512E+00    0.318E+01
RMM:  12    -0.464538995253E+03    0.37902E+01   -0.10650E+01 12410   0.425E+00    0.241E+01
RMM:  13    -0.464770269566E+03   -0.23127E+00   -0.11105E+01 12734   0.433E+00    0.292E+01
RMM:  14    -0.465180586862E+03   -0.41032E+00   -0.83416E+00 13503   0.386E+00    0.258E+01
RMM:  15    -0.463192659645E+03    0.19879E+01   -0.47764E+00 12715   0.282E+00    0.153E+01
RMM:  16    -0.462610580255E+03    0.58208E+00   -0.21426E+00 13010   0.182E+00    0.119E+01
RMM:  17    -0.462383894437E+03    0.22669E+00   -0.13847E+00 12751   0.170E+00    0.143E+01
RMM:  18    -0.461837549976E+03    0.54634E+00   -0.15071E+00 12800   0.166E+00    0.107E+01
RMM:  19    -0.461689871983E+03    0.14768E+00   -0.22753E+00 13134   0.169E+00    0.107E+01
RMM:  20    -0.461478321371E+03    0.21155E+00   -0.21552E+00 13337   0.159E+00    0.762E+00
RMM:  21    -0.461450388807E+03    0.27933E-01   -0.11216E+00 13840   0.115E+00    0.576E+00
RMM:  22    -0.461405084344E+03    0.45304E-01   -0.62052E-01 13057   0.993E-01    0.429E+00
RMM:  23    -0.461397878552E+03    0.72058E-02   -0.44054E-01 13056   0.695E-01    0.329E+00
RMM:  24    -0.461358852766E+03    0.39026E-01   -0.24702E-01 13261   0.594E-01    0.190E+00
RMM:  25    -0.461374839148E+03   -0.15986E-01   -0.17951E-01 13573   0.428E-01    0.252E+00
RMM:  26    -0.461360354472E+03    0.14485E-01   -0.13867E-01 13245   0.356E-01    0.235E+00
RMM:  27    -0.461336660670E+03    0.23694E-01   -0.14783E-01 13244   0.423E-01    0.183E+00
RMM:  28    -0.461336665486E+03   -0.48155E-05   -0.11072E-01 13596   0.353E-01    0.145E+00
RMM:  29    -0.461330711350E+03    0.59541E-02   -0.10211E-01 13194   0.329E-01    0.670E-01
RMM:  30    -0.461332473619E+03   -0.17623E-02   -0.50350E-02 13273   0.226E-01    0.322E-01
RMM:  31    -0.461335151881E+03   -0.26783E-02   -0.36198E-02 13151   0.157E-01    0.423E-01
RMM:  32    -0.461336652455E+03   -0.15006E-02   -0.24582E-02 12755   0.113E-01    0.184E-01
RMM:  33    -0.461338192546E+03   -0.15401E-02   -0.20719E-02 12581   0.972E-02    0.171E-01
RMM:  34    -0.461339775005E+03   -0.15825E-02   -0.16646E-02 13030   0.934E-02    0.202E-01
RMM:  35    -0.461340962970E+03   -0.11880E-02   -0.13287E-02 12476   0.750E-02    0.125E-01
RMM:  36    -0.461341833858E+03   -0.87089E-03   -0.10307E-02 11706   0.570E-02    0.937E-02
RMM:  37    -0.461342638788E+03   -0.80493E-03   -0.89239E-03 12000   0.539E-02    0.262E-02
RMM:  38    -0.461343339175E+03   -0.70039E-03   -0.69607E-03 11503   0.437E-02    0.488E-02
RMM:  39    -0.461343879898E+03   -0.54072E-03   -0.56521E-03 10942   0.362E-02    0.156E-02
RMM:  40    -0.461344328564E+03   -0.44867E-03   -0.46219E-03 11065   0.327E-02    0.643E-03
RMM:  41    -0.461344717239E+03   -0.38867E-03   -0.38975E-03 10746   0.288E-02    0.538E-03
RMM:  42    -0.461345032293E+03   -0.31505E-03   -0.31612E-03  8961   0.250E-02    0.676E-03
RMM:  43    -0.461345298751E+03   -0.26646E-03   -0.26806E-03  9343   0.234E-02    0.528E-03
RMM:  44    -0.461345520514E+03   -0.22176E-03   -0.22283E-03  8729   0.213E-02    0.531E-03
RMM:  45    -0.461345709505E+03   -0.18899E-03   -0.18959E-03  7844   0.194E-02    0.124E-02
RMM:  46    -0.461345869424E+03   -0.15992E-03   -0.16039E-03  8192   0.183E-02    0.198E-02
RMM:  47    -0.461346001649E+03   -0.13223E-03   -0.13421E-03  8217   0.172E-02    0.173E-02
RMM:  48    -0.461346114732E+03   -0.11308E-03   -0.11494E-03  8229   0.162E-02    0.160E-02
RMM:  49    -0.461346210484E+03   -0.95752E-04   -0.96965E-04  7741   0.153E-02    0.168E-02
RMM:  50    -0.461346293292E+03   -0.82808E-04   -0.83570E-04  7407   0.142E-02    0.194E-02
RMM:  51    -0.461346362063E+03   -0.68772E-04   -0.70203E-04  7641   0.136E-02    0.189E-02
RMM:  52    -0.461346423117E+03   -0.61053E-04   -0.61894E-04  7287   0.130E-02    0.211E-02
RMM:  53    -0.461346474511E+03   -0.51395E-04   -0.52194E-04  6897   0.122E-02    0.229E-02
RMM:  54    -0.461346519129E+03   -0.44618E-04   -0.45923E-04  7209   0.120E-02    0.232E-02
RMM:  55    -0.461346557329E+03   -0.38200E-04   -0.39216E-04  6955   0.115E-02    0.243E-02
RMM:  56    -0.461346589922E+03   -0.32593E-04   -0.33987E-04  7047   0.111E-02    0.240E-02
RMM:  57    -0.461346618524E+03   -0.28602E-04   -0.29544E-04  6781   0.108E-02    0.252E-02
RMM:  58    -0.461346643077E+03   -0.24553E-04   -0.25674E-04  6695   0.105E-02    0.258E-02
RMM:  59    -0.461346664600E+03   -0.21523E-04   -0.22505E-04  6453   0.101E-02    0.267E-02
RMM:  60    -0.461346683300E+03   -0.18700E-04   -0.19824E-04  6449   0.100E-02
   1 F= -.46134668E+03 E0= -.46108253E+03  d E =-.461347E+03
       N       E                     dE             d eps       ncg     rms          rms(c)
DAV:   1    -0.340330187184E+04   -0.29420E+04   -0.82055E+04  9100   0.873E+02    0.349E+02
RMM:   2    -0.112059216603E+04    0.22827E+04   -0.56770E+03 13189   0.224E+02    0.167E+02
RMM:   3    -0.553534329058E+03    0.56706E+03   -0.19224E+03  9590   0.123E+02    0.486E+01
RMM:   4    -0.579540614493E+03   -0.26006E+02   -0.77949E+02 12315   0.676E+01    0.241E+01
RMM:   5    -0.589784825953E+03   -0.10244E+02   -0.17308E+02 14807   0.274E+01    0.248E+01
RMM:   6    -0.584444583329E+03    0.53402E+01   -0.36103E+01 14127   0.147E+01    0.131E+01
RMM:   7    -0.588539929346E+03   -0.40953E+01   -0.34435E+01 14871   0.114E+01    0.184E+01
RMM:   8    -0.587289030252E+03    0.12509E+01   -0.17208E+01 14317   0.954E+00    0.730E+00
RMM:   9    -0.589501046484E+03   -0.22120E+01   -0.14666E+01 14917   0.717E+00    0.661E+00
RMM:  10    -0.590566531912E+03   -0.10655E+01   -0.99183E+00 14664   0.618E+00    0.559E+00
RMM:  11    -0.591662171968E+03   -0.10956E+01   -0.85130E+00 15194   0.509E+00    0.488E+00
RMM:  12    -0.592221699808E+03   -0.55953E+00   -0.58345E+00 15061   0.410E+00    0.372E+00
RMM:  13    -0.592606939592E+03   -0.38524E+00   -0.39140E+00 15155   0.324E+00    0.288E+00
RMM:  14    -0.592875970336E+03   -0.26903E+00   -0.27315E+00 14993   0.267E+00    0.207E+00
RMM:  15    -0.593044224368E+03   -0.16825E+00   -0.19088E+00 15114   0.239E+00    0.941E-01
RMM:  16    -0.593144910100E+03   -0.10069E+00   -0.11643E+00 15120   0.188E+00    0.804E-01
RMM:  17    -0.593208065534E+03   -0.63155E-01   -0.73405E-01 15116   0.149E+00    0.635E-01
RMM:  18    -0.593251255742E+03   -0.43190E-01   -0.48638E-01 15086   0.121E+00    0.278E-01
RMM:  19    -0.593280789568E+03   -0.29534E-01   -0.31101E-01 15124   0.101E+00    0.337E-01
RMM:  20    -0.593300289885E+03   -0.19500E-01   -0.21474E-01 15257   0.823E-01    0.231E-01
RMM:  21    -0.593313971488E+03   -0.13682E-01   -0.14837E-01 15172   0.681E-01    0.216E-01
RMM:  22    -0.593322798275E+03   -0.88268E-02   -0.95937E-02 15022   0.572E-01    0.166E-01
RMM:  23    -0.593329191563E+03   -0.63933E-02   -0.69867E-02 15014   0.486E-01    0.104E-01
RMM:  24    -0.593333554764E+03   -0.43632E-02   -0.46896E-02 15047   0.409E-01    0.107E-01
RMM:  25    -0.593336815840E+03   -0.32611E-02   -0.35634E-02 14974   0.342E-01    0.664E-02
RMM:  26    -0.593339075376E+03   -0.22595E-02   -0.24528E-02 14963   0.294E-01    0.292E-02
RMM:  27    -0.593340836327E+03   -0.17610E-02   -0.19075E-02 14789   0.251E-01    0.500E-02
RMM:  28    -0.593342094999E+03   -0.12587E-02   -0.13797E-02 14616   0.217E-01    0.709E-02
RMM:  29    -0.593343181068E+03   -0.10861E-02   -0.11236E-02 14795   0.199E-01    0.192E-01
RMM:  30    -0.593343902445E+03   -0.72138E-03   -0.82557E-03 14545   0.169E-01    0.202E-01
RMM:  31    -0.593344451119E+03   -0.54867E-03   -0.64887E-03 14580   0.148E-01    0.204E-01
RMM:  32    -0.593344853267E+03   -0.40215E-03   -0.48314E-03 14384   0.135E-01    0.234E-01
RMM:  33    -0.593345088806E+03   -0.23554E-03   -0.40070E-03 14328   0.124E-01    0.179E-01
RMM:  34    -0.593345312322E+03   -0.22352E-03   -0.34692E-03 14266   0.112E-01    0.143E-01
RMM:  35    -0.593345449660E+03   -0.13734E-03   -0.26192E-03 14527   0.108E-01    0.720E-02
RMM:  36    -0.593345595350E+03   -0.14569E-03   -0.23518E-03 13642   0.934E-02    0.454E-02
RMM:  37    -0.593345697600E+03   -0.10225E-03   -0.18258E-03 14004   0.899E-02    0.439E-02
RMM:  38    -0.593345763308E+03   -0.65707E-04   -0.15247E-03 11002   0.781E-02    0.363E-02
RMM:  39    -0.593345819883E+03   -0.56575E-04   -0.14328E-03 11273   0.752E-02    0.395E-02
RMM:  40    -0.593345847112E+03   -0.27229E-04   -0.11491E-03 10423   0.708E-02    0.299E-02
RMM:  41    -0.593345875060E+03   -0.27947E-04   -0.11579E-03 10257   0.670E-02    0.350E-02
RMM:  42    -0.593345886686E+03   -0.11626E-04   -0.95546E-04  9912   0.646E-02    0.295E-02
RMM:  43    -0.593345894155E+03   -0.74696E-05   -0.97056E-04  9697   0.613E-02    0.343E-02
RMM:  44    -0.593345889287E+03    0.48677E-05   -0.82209E-04  9481   0.597E-02    0.299E-02
RMM:  45    -0.593345885180E+03    0.41073E-05   -0.85254E-04  9240   0.574E-02    0.340E-02
RMM:  46    -0.593345867609E+03    0.17572E-04   -0.73573E-04  9084   0.558E-02    0.293E-02
RMM:  47    -0.593345851634E+03    0.15974E-04   -0.79101E-04  8946   0.545E-02    0.304E-02
RMM:  48    -0.593345826327E+03    0.25307E-04   -0.68541E-04  8664   0.529E-02    0.249E-02
RMM:  49    -0.593345805016E+03    0.21310E-04   -0.74249E-04  8716   0.526E-02    0.306E-02
RMM:  50    -0.593345772158E+03    0.32859E-04   -0.65462E-04  8669   0.518E-02    0.278E-02
RMM:  51    -0.593345743497E+03    0.28661E-04   -0.73322E-04  8725   0.507E-02    0.243E-02
RMM:  52    -0.593345709881E+03    0.33616E-04   -0.64715E-04  7895   0.493E-02    0.224E-02
RMM:  53    -0.593345677538E+03    0.32343E-04   -0.71721E-04  8676   0.496E-02    0.194E-02
RMM:  54    -0.593345638787E+03    0.38752E-04   -0.64214E-04  7992   0.483E-02    0.145E-02
RMM:  55    -0.593345603755E+03    0.35031E-04   -0.70878E-04  8318   0.482E-02    0.125E-02
RMM:  56    -0.593345563092E+03    0.40664E-04   -0.64723E-04  7982   0.478E-02    0.725E-03
RMM:  57    -0.593345525052E+03    0.38039E-04   -0.71170E-04  8052   0.477E-02    0.708E-03
RMM:  58    -0.593345482056E+03    0.42997E-04   -0.65585E-04  7570   0.473E-02    0.341E-03
RMM:  59    -0.593345441224E+03    0.40831E-04   -0.71294E-04  6767   0.465E-02    0.605E-03
RMM:  60    -0.593345395022E+03    0.46203E-04   -0.66404E-04  6264   0.465E-02
   2 F= -.59334540E+03 E0= -.59327527E+03  d E =-.131999E+03
       N       E                     dE             d eps       ncg     rms          rms(c)
DAV:   1    -0.981372124104E+03   -0.38803E+03   -0.58601E+03 11144   0.231E+02    0.193E+02
RMM:   2    -0.142667580340E+04   -0.44530E+03   -0.20211E+03 11629   0.111E+02    0.110E+02
RMM:   3    -0.844560583088E+03    0.58212E+03   -0.68694E+02 12963   0.496E+01    0.720E+01
RMM:   4    -0.651409631085E+03    0.19315E+03   -0.25669E+02 12397   0.352E+01    0.337E+01
RMM:   5    -0.638439162504E+03    0.12970E+02   -0.10749E+02 12926   0.208E+01    0.271E+01
RMM:   6    -0.634163887345E+03    0.42753E+01   -0.36699E+01 13811   0.114E+01    0.196E+01
RMM:   7    -0.632057256272E+03    0.21066E+01   -0.27035E+01 14091   0.960E+00    0.176E+01
RMM:   8    -0.632904713728E+03   -0.84746E+00   -0.13499E+01 14380   0.615E+00    0.202E+01
RMM:   9    -0.631284162679E+03    0.16206E+01   -0.68498E+00 14580   0.428E+00    0.794E+00
RMM:  10    -0.631872859149E+03   -0.58870E+00   -0.49286E+00 14683   0.317E+00    0.819E+00
RMM:  11    -0.631867728304E+03    0.51308E-02   -0.27616E+00 14767   0.248E+00    0.583E+00
RMM:  12    -0.631810638697E+03    0.57090E-01   -0.17473E+00 14709   0.197E+00    0.352E+00
RMM:  13    -0.631861658376E+03   -0.51020E-01   -0.10705E+00 14806   0.151E+00    0.306E+00
RMM:  14    -0.631939209033E+03   -0.77551E-01   -0.85444E-01 14791   0.141E+00    0.286E+00
RMM:  15    -0.631995025393E+03   -0.55816E-01   -0.58584E-01 15064   0.113E+00    0.258E+00
RMM:  16    -0.632024625279E+03   -0.29600E-01   -0.36539E-01 14842   0.923E-01    0.224E+00
RMM:  17    -0.632014610812E+03    0.10014E-01   -0.22867E-01 14842   0.761E-01    0.994E-01
RMM:  18    -0.632022291518E+03   -0.76807E-02   -0.17229E-01 15053   0.610E-01    0.607E-01
RMM:  19    -0.632030900111E+03   -0.86086E-02   -0.10856E-01 15047   0.491E-01    0.538E-01
RMM:  20    -0.632039782212E+03   -0.88821E-02   -0.83711E-02 14970   0.449E-01    0.618E-01
RMM:  21    -0.632040814470E+03   -0.10323E-02   -0.49241E-02 14847   0.379E-01    0.160E-01
RMM:  22    -0.632044674751E+03   -0.38603E-02   -0.38880E-02 15107   0.302E-01    0.303E-01
RMM:  23    -0.632046265103E+03   -0.15904E-02   -0.25941E-02 14772   0.280E-01    0.151E-01
RMM:  24    -0.632047947015E+03   -0.16819E-02   -0.19696E-02 14937   0.218E-01    0.135E-01
RMM:  25    -0.632048989188E+03   -0.10422E-02   -0.13528E-02 14784   0.187E-01    0.723E-02
RMM:  26    -0.632049771962E+03   -0.78277E-03   -0.92850E-03 14859   0.168E-01    0.541E-02
RMM:  27    -0.632050312657E+03   -0.54070E-03   -0.67137E-03 14648   0.145E-01    0.308E-02
RMM:  28    -0.632050751419E+03   -0.43876E-03   -0.53532E-03 14456   0.126E-01    0.239E-02
RMM:  29    -0.632051053427E+03   -0.30201E-03   -0.37991E-03 14389   0.111E-01    0.146E-02
RMM:  30    -0.632051273009E+03   -0.21958E-03   -0.28737E-03 14307   0.990E-02    0.121E-02
RMM:  31    -0.632051426422E+03   -0.15341E-03   -0.21645E-03 14212   0.890E-02    0.158E-02
RMM:  32    -0.632051530430E+03   -0.10401E-03   -0.16662E-03 14071   0.808E-02    0.922E-03
RMM:  33    -0.632051605570E+03   -0.75140E-04   -0.13579E-03 13762   0.742E-02    0.704E-03
RMM:  34    -0.632051653667E+03   -0.48097E-04   -0.10673E-03 12861   0.684E-02    0.112E-02
RMM:  35    -0.632051679248E+03   -0.25581E-04   -0.85635E-04 12439   0.638E-02    0.209E-03
RMM:  36    -0.632051690663E+03   -0.11414E-04   -0.72300E-04 11715   0.604E-02    0.547E-03
RMM:  37    -0.632051689600E+03    0.10629E-05   -0.60448E-04 11230   0.575E-02    0.413E-03
RMM:  38    -0.632051679125E+03    0.10475E-04   -0.53215E-04 10727   0.556E-02    0.711E-03
RMM:  39    -0.632051659146E+03    0.19978E-04   -0.44796E-04 10248   0.537E-02    0.712E-03
RMM:  40    -0.632051632252E+03    0.26894E-04   -0.40553E-04  9907   0.526E-02    0.760E-03
RMM:  41    -0.632051597811E+03    0.34442E-04   -0.35183E-04  9674   0.516E-02    0.838E-03
RMM:  42    -0.632051558038E+03    0.39772E-04   -0.33042E-04  9284   0.508E-02    0.901E-03
RMM:  43    -0.632051511384E+03    0.46655E-04   -0.28866E-04  9311   0.503E-02    0.878E-03
RMM:  44    -0.632051460419E+03    0.50965E-04   -0.27995E-04  8937   0.498E-02    0.957E-03
RMM:  45    -0.632051402358E+03    0.58061E-04   -0.24245E-04  8826   0.495E-02    0.924E-03
RMM:  46    -0.632051340977E+03    0.61380E-04   -0.24872E-04  8600   0.493E-02    0.103E-02
RMM:  47    -0.632051272742E+03    0.68236E-04   -0.21315E-04  8381   0.492E-02    0.102E-02
RMM:  48    -0.632051200755E+03    0.71986E-04   -0.22310E-04  8366   0.492E-02    0.111E-02
RMM:  49    -0.632051121594E+03    0.79161E-04   -0.19182E-04  8314   0.494E-02    0.108E-02
RMM:  50    -0.632051038523E+03    0.83071E-04   -0.20529E-04  8148   0.496E-02    0.117E-02
RMM:  51    -0.632050947985E+03    0.90538E-04   -0.17691E-04  8249   0.500E-02    0.113E-02
RMM:  52    -0.632050853120E+03    0.94866E-04   -0.19221E-04  7980   0.503E-02    0.121E-02
RMM:  53    -0.632050750249E+03    0.10287E-03   -0.16507E-04  8158   0.508E-02    0.118E-02
RMM:  54    -0.632050642772E+03    0.10748E-03   -0.18468E-04  7993   0.513E-02    0.125E-02
RMM:  55    -0.632050526354E+03    0.11642E-03   -0.15482E-04  8013   0.519E-02    0.122E-02
RMM:  56    -0.632050404804E+03    0.12155E-03   -0.17813E-04  7949   0.525E-02    0.128E-02
RMM:  57    -0.632050272926E+03    0.13188E-03   -0.14407E-04  7931   0.532E-02    0.124E-02
RMM:  58    -0.632050135480E+03    0.13745E-03   -0.17121E-04  7854   0.539E-02    0.130E-02
RMM:  59    -0.632049987122E+03    0.14836E-03   -0.13788E-04  7879   0.547E-02    0.128E-02
RMM:  60    -0.632049832089E+03    0.15503E-03   -0.16506E-04  7759   0.556E-02
   3 F= -.63204983E+03 E0= -.63195118E+03  d E =-.170703E+03
       N       E                     dE             d eps       ncg     rms          rms(c)
DAV:   1    -0.633923294419E+03   -0.18733E+01   -0.29866E+01 11228   0.164E+01    0.109E+01
RMM:   2    -0.646014148350E+03   -0.12091E+02   -0.22676E+01 10087   0.119E+01    0.391E+01
RMM:   3    -0.633014023715E+03    0.13000E+02   -0.49749E+00 10289   0.644E+00    0.652E+00
RMM:   4    -0.632760615707E+03    0.25341E+00   -0.91796E-01 12145   0.222E+00    0.620E+00
RMM:   5    -0.632567274502E+03    0.19334E+00   -0.39529E-01 11652   0.150E+00    0.393E+00
RMM:   6    -0.632448879030E+03    0.11840E+00   -0.25334E-01 12134   0.113E+00    0.249E+00
RMM:   7    -0.632437262444E+03    0.11617E-01   -0.12359E-01 12394   0.822E-01    0.224E+00
RMM:   8    -0.632404145084E+03    0.33117E-01   -0.51371E-02 12517   0.539E-01    0.544E-01
RMM:   9    -0.632402645502E+03    0.14996E-02   -0.17550E-02 14192   0.266E-01    0.441E-01
RMM:  10    -0.632402521489E+03    0.12401E-03   -0.59778E-03 14255   0.170E-01    0.459E-01
RMM:  11    -0.632401674995E+03    0.84649E-03   -0.32398E-03 14382   0.122E-01    0.196E-01
RMM:  12    -0.632401965814E+03   -0.29082E-03   -0.21885E-03 14647   0.920E-02    0.173E-01
RMM:  13    -0.632402339566E+03   -0.37375E-03   -0.15980E-03 14656   0.799E-02    0.195E-01
RMM:  14    -0.632402378497E+03   -0.38930E-04   -0.11909E-03 14487   0.686E-02    0.772E-02
RMM:  15    -0.632402544354E+03   -0.16586E-03   -0.93226E-04 14170   0.544E-02    0.879E-02
RMM:  16    -0.632402630412E+03   -0.86058E-04   -0.68501E-04 13846   0.495E-02    0.709E-02
RMM:  17    -0.632402678923E+03   -0.48511E-04   -0.51183E-04 13249   0.427E-02    0.408E-02
RMM:  18    -0.632402719697E+03   -0.40774E-04   -0.36947E-04 12568   0.369E-02    0.300E-02
RMM:  19    -0.632402740324E+03   -0.20627E-04   -0.28207E-04 12294   0.335E-02    0.132E-02
RMM:  20    -0.632402751581E+03   -0.11258E-04   -0.21686E-04 12034   0.299E-02    0.894E-03
RMM:  21    -0.632402752497E+03   -0.91524E-06   -0.14545E-04 11394   0.261E-02    0.529E-03
RMM:  22    -0.632402750280E+03    0.22165E-05   -0.10121E-04 10446   0.230E-02    0.489E-03
RMM:  23    -0.632402745597E+03    0.46834E-05   -0.79801E-05  9901   0.220E-02
   4 F= -.63240275E+03 E0= -.63230642E+03  d E =-.171056E+03
       N       E                     dE             d eps       ncg     rms          rms(c)
DAV:   1    -0.632634016508E+03   -0.23127E+00   -0.39676E+00 10220   0.598E+00    0.422E+00
RMM:   2    -0.634627350601E+03   -0.19933E+01   -0.29131E+00 10188   0.426E+00    0.163E+01
RMM:   3    -0.632521609868E+03    0.21057E+01   -0.75780E-01 10111   0.251E+00    0.257E+00
RMM:   4    -0.632494008016E+03    0.27602E-01   -0.14220E-01 12014   0.867E-01    0.278E+00
RMM:   5    -0.632445992047E+03    0.48016E-01   -0.55841E-02 11389   0.588E-01    0.121E+00
RMM:   6    -0.632441175051E+03    0.48170E-02   -0.35229E-02 12251   0.408E-01    0.129E+00
RMM:   7    -0.632432734646E+03    0.84404E-02   -0.17788E-02 11874   0.331E-01    0.679E-01
RMM:   8    -0.632429184537E+03    0.35501E-02   -0.74753E-03 12607   0.199E-01    0.193E-01
RMM:   9    -0.632429013534E+03    0.17100E-03   -0.23064E-03 14099   0.955E-02    0.148E-01
RMM:  10    -0.632428987454E+03    0.26080E-04   -0.83187E-04 13837   0.634E-02    0.139E-01
RMM:  11    -0.632428927088E+03    0.60367E-04   -0.45432E-04 13494   0.449E-02    0.710E-02
RMM:  12    -0.632428981183E+03   -0.54096E-04   -0.32198E-04 13408   0.355E-02    0.503E-02
RMM:  13    -0.632429057795E+03   -0.76612E-04   -0.25722E-04 12951   0.302E-02    0.616E-02
RMM:  14    -0.632429070277E+03   -0.12482E-04   -0.17005E-04 11947   0.257E-02    0.342E-02
RMM:  15    -0.632429100876E+03   -0.30599E-04   -0.14421E-04 11081   0.220E-02    0.262E-02
RMM:  16    -0.632429121036E+03   -0.20160E-04   -0.10995E-04 10645   0.200E-02    0.284E-02
RMM:  17    -0.632429127612E+03   -0.65758E-05   -0.74980E-05 10045   0.176E-02
   5 F= -.63242913E+03 E0= -.63233365E+03  d E =-.171082E+03
       N       E                     dE             d eps       ncg     rms          rms(c)
DAV:   1    -0.631424710674E+03    0.10044E+01   -0.56687E+02  8624   0.762E+01    0.505E+00
RMM:   2    -0.634965970252E+03   -0.35413E+01   -0.35382E+01 12715   0.170E+01    0.787E+00
RMM:   3    -0.635278990600E+03   -0.31302E+00   -0.89442E+00 13803   0.664E+00    0.514E+00
RMM:   4    -0.635195826167E+03    0.83164E-01   -0.16281E+00 14045   0.296E+00    0.418E+00
RMM:   5    -0.635107443620E+03    0.88383E-01   -0.62884E-01 14290   0.166E+00    0.281E+00
RMM:   6    -0.635095696338E+03    0.11747E-01   -0.43697E-01 14273   0.130E+00    0.253E+00
RMM:   7    -0.635094056922E+03    0.16394E-02   -0.26739E-01 14420   0.987E-01    0.240E+00
RMM:   8    -0.635054472627E+03    0.39584E-01   -0.12297E-01 14451   0.669E-01    0.711E-01
RMM:   9    -0.635061497807E+03   -0.70252E-02   -0.78919E-02 14523   0.457E-01    0.897E-01
RMM:  10    -0.635059902493E+03    0.15953E-02   -0.45935E-02 14557   0.378E-01    0.432E-01
RMM:  11    -0.635061670562E+03   -0.17681E-02   -0.31087E-02 14931   0.268E-01    0.257E-01
RMM:  12    -0.635062962724E+03   -0.12922E-02   -0.18780E-02 14827   0.202E-01    0.206E-01
RMM:  13    -0.635063977775E+03   -0.10151E-02   -0.11875E-02 14554   0.163E-01    0.185E-01
RMM:  14    -0.635064565927E+03   -0.58815E-03   -0.75126E-03 14846   0.133E-01    0.102E-01
RMM:  15    -0.635064976227E+03   -0.41030E-03   -0.49127E-03 14827   0.108E-01    0.518E-02
RMM:  16    -0.635065240678E+03   -0.26445E-03   -0.31471E-03 14491   0.856E-02    0.401E-02
RMM:  17    -0.635065413266E+03   -0.17259E-03   -0.20533E-03 14129   0.692E-02    0.367E-02
RMM:  18    -0.635065524350E+03   -0.11108E-03   -0.13256E-03 13971   0.561E-02    0.234E-02
RMM:  19    -0.635065596856E+03   -0.72505E-04   -0.87143E-04 13872   0.463E-02    0.116E-02
RMM:  20    -0.635065647008E+03   -0.50152E-04   -0.57576E-04 13726   0.386E-02    0.764E-03
RMM:  21    -0.635065681647E+03   -0.34639E-04   -0.39803E-04 13440   0.323E-02    0.298E-03
RMM:  22    -0.635065706348E+03   -0.24701E-04   -0.27540E-04 13041   0.274E-02    0.316E-03
RMM:  23    -0.635065722559E+03   -0.16211E-04   -0.18418E-04 12220   0.234E-02    0.163E-03
RMM:  24    -0.635065733213E+03   -0.10653E-04   -0.12480E-04 10978   0.206E-02    0.128E-03
RMM:  25    -0.635065740471E+03   -0.72581E-05   -0.90577E-05 10206   0.190E-02
   6 F= -.63506574E+03 E0= -.63498576E+03  d E =-.263661E+01
       N       E                     dE             d eps       ncg     rms          rms(c)
DAV:   1    -0.634682126158E+03    0.38361E+00   -0.10139E+02  8680   0.324E+01    0.208E+00
RMM:   2    -0.635300214001E+03   -0.61809E+00   -0.62331E+00 12755   0.727E+00    0.318E+00
RMM:   3    -0.635360026066E+03   -0.59812E-01   -0.15473E+00 13731   0.279E+00    0.209E+00
RMM:   4    -0.635353880531E+03    0.61455E-02   -0.31243E-01 14170   0.131E+00    0.181E+00
RMM:   5    -0.635336838928E+03    0.17042E-01   -0.11407E-01 14294   0.710E-01    0.107E+00
RMM:   6    -0.635336963669E+03   -0.12474E-03   -0.75513E-02 14147   0.537E-01    0.105E+00
RMM:   7    -0.635334858202E+03    0.21055E-02   -0.46761E-02 14404   0.419E-01    0.869E-01
RMM:   8    -0.635329866077E+03    0.49921E-02   -0.22594E-02 14411   0.288E-01    0.287E-01
RMM:   9    -0.635331143506E+03   -0.12774E-02   -0.15023E-02 14602   0.201E-01    0.344E-01
RMM:  10    -0.635331118933E+03    0.24573E-04   -0.88633E-03 14401   0.164E-01    0.178E-01
RMM:  11    -0.635331454702E+03   -0.33577E-03   -0.59911E-03 14845   0.116E-01    0.969E-02
RMM:  12    -0.635331728355E+03   -0.27365E-03   -0.36479E-03 14345   0.861E-02    0.671E-02
RMM:  13    -0.635331987842E+03   -0.25949E-03   -0.22084E-03 14117   0.710E-02    0.961E-02
RMM:  14    -0.635332062942E+03   -0.75100E-04   -0.13705E-03 13849   0.595E-02    0.436E-02
RMM:  15    -0.635332135794E+03   -0.72852E-04   -0.90397E-04 13602   0.464E-02    0.193E-02
RMM:  16    -0.635332181972E+03   -0.46178E-04   -0.57679E-04 13213   0.374E-02    0.974E-03
RMM:  17    -0.635332215091E+03   -0.33119E-04   -0.38378E-04 12933   0.299E-02    0.102E-02
RMM:  18    -0.635332235694E+03   -0.20602E-04   -0.23618E-04 12619   0.247E-02    0.102E-02
RMM:  19    -0.635332248371E+03   -0.12677E-04   -0.15125E-04 12006   0.204E-02    0.524E-03
RMM:  20    -0.635332256140E+03   -0.77695E-05   -0.92863E-05 10623   0.177E-02
   7 F= -.63533226E+03 E0= -.63525808E+03  d E =-.290313E+01
       N       E                     dE             d eps       ncg     rms          rms(c)
DAV:   1    -0.637375364697E+03   -0.20431E+01   -0.30228E+02  8624   0.641E+01    0.214E+01
RMM:   2    -0.668031779115E+03   -0.30656E+02   -0.63032E+01 11637   0.218E+01    0.362E+01
RMM:   3    -0.637517140999E+03    0.30515E+02   -0.17303E+01 10899   0.123E+01    0.110E+01
RMM:   4    -0.636469312532E+03    0.10478E+01   -0.53748E+00 13966   0.507E+00    0.679E+00
RMM:   5    -0.636284422204E+03    0.18489E+00   -0.19376E+00 13891   0.284E+00    0.704E+00
RMM:   6    -0.635947286613E+03    0.33714E+00   -0.82571E-01 14372   0.195E+00    0.399E+00
RMM:   7    -0.635906372402E+03    0.40914E-01   -0.51323E-01 14213   0.153E+00    0.377E+00
RMM:   8    -0.635816293557E+03    0.90079E-01   -0.24925E-01 13772   0.129E+00    0.194E+00
RMM:   9    -0.635796486715E+03    0.19807E-01   -0.12167E-01 14628   0.754E-01    0.965E-01
RMM:  10    -0.635792324555E+03    0.41622E-02   -0.53637E-02 14644   0.484E-01    0.852E-01
RMM:  11    -0.635789913063E+03    0.24115E-02   -0.33857E-02 14696   0.371E-01    0.391E-01
RMM:  12    -0.635791687195E+03   -0.17741E-02   -0.22891E-02 14979   0.279E-01    0.241E-01
RMM:  13    -0.635793016727E+03   -0.13295E-02   -0.15571E-02 15116   0.223E-01    0.196E-01
RMM:  14    -0.635794234755E+03   -0.12180E-02   -0.11308E-02 14820   0.194E-01    0.217E-01
RMM:  15    -0.635795010381E+03   -0.77563E-03   -0.87342E-03 14911   0.172E-01    0.114E-01
RMM:  16    -0.635795559645E+03   -0.54926E-03   -0.65192E-03 14927   0.144E-01    0.980E-02
RMM:  17    -0.635795930860E+03   -0.37121E-03   -0.46915E-03 14545   0.122E-01    0.741E-02
RMM:  18    -0.635796204985E+03   -0.27412E-03   -0.35352E-03 14445   0.102E-01    0.511E-02
RMM:  19    -0.635796417601E+03   -0.21262E-03   -0.26161E-03 14444   0.889E-02    0.235E-02
RMM:  20    -0.635796596194E+03   -0.17859E-03   -0.19657E-03 14213   0.750E-02    0.227E-02
RMM:  21    -0.635796718891E+03   -0.12270E-03   -0.14420E-03 13987   0.649E-02    0.979E-03
RMM:  22    -0.635796821976E+03   -0.10309E-03   -0.11359E-03 13900   0.558E-02    0.103E-02
RMM:  23    -0.635796898886E+03   -0.76909E-04   -0.85613E-04 13733   0.487E-02    0.686E-03
RMM:  24    -0.635796958722E+03   -0.59837E-04   -0.66741E-04 13437   0.430E-02    0.394E-03
RMM:  25    -0.635797006128E+03   -0.47405E-04   -0.52498E-04 12766   0.381E-02    0.437E-03
RMM:  26    -0.635797043114E+03   -0.36986E-04   -0.41417E-04 12008   0.343E-02    0.412E-03
RMM:  27    -0.635797071986E+03   -0.28872E-04   -0.33218E-04 11235   0.313E-02    0.159E-03
RMM:  28    -0.635797094952E+03   -0.22966E-04   -0.26950E-04 10668   0.290E-02    0.125E-03
RMM:  29    -0.635797113361E+03   -0.18409E-04   -0.21917E-04  9927   0.268E-02    0.198E-03
RMM:  30    -0.635797128448E+03   -0.15087E-04   -0.18288E-04  9546   0.252E-02    0.444E-03
RMM:  31    -0.635797140701E+03   -0.12253E-04   -0.15326E-04  9184   0.237E-02    0.595E-03
RMM:  32    -0.635797150623E+03   -0.99223E-05   -0.12913E-04  8906   0.225E-02    0.682E-03
RMM:  33    -0.635797158758E+03   -0.81351E-05   -0.11056E-04  8770   0.215E-02    0.732E-03
RMM:  34    -0.635797165356E+03   -0.65979E-05   -0.95194E-05  8772   0.206E-02
   8 F= -.63579717E+03 E0= -.63572706E+03  d E =-.464909E+00
       N       E                     dE             d eps       ncg     rms          rms(c)
DAV:   1    -0.635921583364E+03   -0.12442E+00   -0.16602E+01  9408   0.157E+01    0.433E+00
RMM:   2    -0.637748684103E+03   -0.18271E+01   -0.41597E+00 10266   0.600E+00    0.143E+01
RMM:   3    -0.635917160730E+03    0.18315E+01   -0.11008E+00 10707   0.329E+00    0.232E+00
RMM:   4    -0.635914298416E+03    0.28623E-02   -0.29174E-01 14179   0.125E+00    0.271E+00
RMM:   5    -0.635863952585E+03    0.50346E-01   -0.76298E-02 12956   0.705E-01    0.123E+00
RMM:   6    -0.635855810076E+03    0.81425E-02   -0.50208E-02 13733   0.489E-01    0.110E+00
RMM:   7    -0.635849951687E+03    0.58584E-02   -0.30747E-02 13593   0.445E-01    0.739E-01
RMM:   8    -0.635847128399E+03    0.28233E-02   -0.15582E-02 14191   0.276E-01    0.448E-01
RMM:   9    -0.635846174743E+03    0.95366E-03   -0.62119E-03 14451   0.178E-01    0.280E-01
RMM:  10    -0.635845704497E+03    0.47025E-03   -0.29926E-03 14607   0.112E-01    0.104E-01
RMM:  11    -0.635845786011E+03   -0.81514E-04   -0.18516E-03 14376   0.747E-02    0.672E-02
RMM:  12    -0.635845936799E+03   -0.15079E-03   -0.12076E-03 14089   0.620E-02    0.707E-02
RMM:  13    -0.635845995179E+03   -0.58380E-04   -0.78774E-04 13777   0.513E-02    0.460E-02
RMM:  14    -0.635846057132E+03   -0.61953E-04   -0.56659E-04 13624   0.430E-02    0.303E-02
RMM:  15    -0.635846116411E+03   -0.59279E-04   -0.46706E-04 13302   0.376E-02    0.236E-02
RMM:  16    -0.635846147962E+03   -0.31552E-04   -0.31929E-04 12973   0.322E-02    0.236E-02
RMM:  17    -0.635846166774E+03   -0.18811E-04   -0.22612E-04 12614   0.276E-02    0.159E-02
RMM:  18    -0.635846180499E+03   -0.13725E-04   -0.17021E-04 12322   0.231E-02    0.944E-03
RMM:  19    -0.635846190369E+03   -0.98693E-05   -0.12136E-04 11452   0.199E-02    0.354E-03
RMM:  20    -0.635846196027E+03   -0.56586E-05   -0.71028E-05  9284   0.174E-02
   9 F= -.63584620E+03 E0= -.63577554E+03  d E =-.513940E+00
       N       E                     dE             d eps       ncg     rms          rms(c)
DAV:   1    -0.633478238890E+03    0.23680E+01   -0.24026E+02  8624   0.597E+01    0.454E+00
RMM:   2    -0.636491058603E+03   -0.30128E+01   -0.25190E+01 11780   0.143E+01    0.983E+00
RMM:   3    -0.636289731819E+03    0.20133E+00   -0.79559E+00 13479   0.633E+00    0.327E+00
RMM:   4    -0.636311561301E+03   -0.21829E-01   -0.10672E+00 14248   0.230E+00    0.292E+00
RMM:   5    -0.636264401009E+03    0.47160E-01   -0.33103E-01 14247   0.120E+00    0.174E+00
RMM:   6    -0.636252778581E+03    0.11622E-01   -0.16962E-01 14273   0.843E-01    0.126E+00
RMM:   7    -0.636261138248E+03   -0.83597E-02   -0.11409E-01 14242   0.671E-01    0.172E+00
RMM:   8    -0.636241373647E+03    0.19765E-01   -0.59996E-02 14532   0.484E-01    0.519E-01
RMM:   9    -0.636243441032E+03   -0.20674E-02   -0.33305E-02 14585   0.300E-01    0.517E-01
RMM:  10    -0.636243492816E+03   -0.51784E-04   -0.19773E-02 14696   0.243E-01    0.280E-01
RMM:  11    -0.636243989275E+03   -0.49646E-03   -0.12382E-02 14949   0.171E-01    0.152E-01
RMM:  12    -0.636244748526E+03   -0.75925E-03   -0.78926E-03 14840   0.135E-01    0.155E-01
RMM:  13    -0.636245100689E+03   -0.35216E-03   -0.48505E-03 14532   0.110E-01    0.898E-02
RMM:  14    -0.636245439134E+03   -0.33845E-03   -0.32455E-03 14659   0.888E-02    0.785E-02
RMM:  15    -0.636245623460E+03   -0.18433E-03   -0.20887E-03 14428   0.758E-02    0.612E-02
RMM:  16    -0.636245716146E+03   -0.92686E-04   -0.13910E-03 14270   0.612E-02    0.164E-02
RMM:  17    -0.636245801654E+03   -0.85508E-04   -0.99756E-04 13920   0.497E-02    0.129E-02
RMM:  18    -0.636245856360E+03   -0.54706E-04   -0.64831E-04 13624   0.410E-02    0.891E-03
RMM:  19    -0.636245894943E+03   -0.38583E-04   -0.44158E-04 13366   0.343E-02    0.481E-03
RMM:  20    -0.636245920883E+03   -0.25940E-04   -0.29362E-04 13150   0.288E-02    0.274E-03
RMM:  21    -0.636245938843E+03   -0.17961E-04   -0.20253E-04 12494   0.245E-02    0.179E-03
RMM:  22    -0.636245950236E+03   -0.11392E-04   -0.13225E-04 11461   0.213E-02    0.159E-03
RMM:  23    -0.636245957636E+03   -0.74002E-05   -0.91300E-05 10338   0.193E-02
  10 F= -.63624596E+03 E0= -.63618329E+03  d E =-.399762E+00
       N       E                     dE             d eps       ncg     rms          rms(c)
DAV:   1    -0.636225407425E+03    0.20543E-01   -0.22524E+00  9828   0.587E+00    0.449E-01
RMM:   2    -0.636253545583E+03   -0.28138E-01   -0.23524E-01 11735   0.137E+00    0.895E-01
RMM:   3    -0.636251930937E+03    0.16146E-02   -0.69890E-02 13252   0.612E-01    0.331E-01
RMM:   4    -0.636252464453E+03   -0.53352E-03   -0.12657E-02 14293   0.240E-01    0.320E-01
RMM:   5    -0.636251912449E+03    0.55200E-03   -0.29604E-03 13751   0.115E-01    0.178E-01
RMM:   6    -0.636251792490E+03    0.11996E-03   -0.14990E-03 13707   0.777E-02    0.148E-01
RMM:   7    -0.636251870972E+03   -0.78482E-04   -0.10427E-03 13529   0.665E-02    0.180E-01
RMM:   8    -0.636251607598E+03    0.26337E-03   -0.58141E-04 13436   0.494E-02    0.399E-02
RMM:   9    -0.636251639046E+03   -0.31448E-04   -0.30602E-04 11853   0.320E-02    0.594E-02
RMM:  10    -0.636251623672E+03    0.15374E-04   -0.17460E-04 11366   0.256E-02    0.197E-02
RMM:  11    -0.636251627307E+03   -0.36349E-05   -0.10520E-04 10441   0.171E-02    0.123E-02
RMM:  12    -0.636251631416E+03   -0.41091E-05   -0.56484E-05  9665   0.138E-02
  11 F= -.63625163E+03 E0= -.63618819E+03  d E =-.405435E+00
       N       E                     dE             d eps       ncg     rms          rms(c)
DAV:   1    -0.635733921745E+03    0.51771E+00   -0.75389E+01  8624   0.334E+01    0.250E+00
RMM:   2    -0.636406573672E+03   -0.67265E+00   -0.69747E+00 12462   0.761E+00    0.390E+00
RMM:   3    -0.636501708646E+03   -0.95135E-01   -0.20566E+00 13448   0.327E+00    0.215E+00
RMM:   4    -0.636514820051E+03   -0.13111E-01   -0.35751E-01 14195   0.135E+00    0.215E+00
RMM:   5    -0.636480181936E+03    0.34638E-01   -0.11696E-01 14120   0.726E-01    0.939E-01
RMM:   6    -0.636478673269E+03    0.15087E-02   -0.65911E-02 14090   0.477E-01    0.741E-01
RMM:   7    -0.636479327105E+03   -0.65384E-03   -0.43545E-02 14196   0.399E-01    0.803E-01
RMM:   8    -0.636474767543E+03    0.45596E-02   -0.22851E-02 14351   0.286E-01    0.189E-01
RMM:   9    -0.636475875736E+03   -0.11082E-02   -0.15056E-02 14729   0.181E-01    0.166E-01
RMM:  10    -0.636476545456E+03   -0.66972E-03   -0.91643E-03 14309   0.139E-01    0.149E-01
RMM:  11    -0.636476834256E+03   -0.28880E-03   -0.54708E-03 14062   0.104E-01    0.527E-02
RMM:  12    -0.636477159299E+03   -0.32504E-03   -0.34428E-03 14183   0.807E-02    0.637E-02
RMM:  13    -0.636477321679E+03   -0.16238E-03   -0.20584E-03 13826   0.646E-02    0.388E-02
RMM:  14    -0.636477437603E+03   -0.11592E-03   -0.13281E-03 13543   0.514E-02    0.240E-02
RMM:  15    -0.636477513292E+03   -0.75689E-04   -0.82516E-04 13267   0.421E-02    0.264E-02
RMM:  16    -0.636477554043E+03   -0.40750E-04   -0.52760E-04 12902   0.348E-02    0.864E-03
RMM:  17    -0.636477586635E+03   -0.32592E-04   -0.36968E-04 12580   0.282E-02    0.538E-03
RMM:  18    -0.636477607279E+03   -0.20644E-04   -0.23507E-04 12025   0.232E-02    0.288E-03
RMM:  19    -0.636477621227E+03   -0.13948E-04   -0.15857E-04 11346   0.198E-02    0.159E-03
RMM:  20    -0.636477629458E+03   -0.82314E-05   -0.97914E-05  9984   0.172E-02
  12 F= -.63647763E+03 E0= -.63641953E+03  d E =-.225998E+00
       N       E                     dE             d eps       ncg     rms          rms(c)
DAV:   1    -0.636439917484E+03    0.37704E-01   -0.47769E+00  9408   0.843E+00    0.629E-01
RMM:   2    -0.636482900337E+03   -0.42983E-01   -0.44851E-01 12631   0.191E+00    0.927E-01
RMM:   3    -0.636489276362E+03   -0.63760E-02   -0.12818E-01 13515   0.807E-01    0.559E-01
RMM:   4    -0.636489870945E+03   -0.59458E-03   -0.22346E-02 14146   0.339E-01    0.532E-01
RMM:   5    -0.636487854489E+03    0.20165E-02   -0.78842E-03 14153   0.188E-01    0.239E-01
RMM:   6    -0.636487741950E+03    0.11254E-03   -0.43777E-03 14007   0.124E-01    0.181E-01
RMM:   7    -0.636487829958E+03   -0.88008E-04   -0.28871E-03 13905   0.102E-01    0.216E-01
RMM:   8    -0.636487537160E+03    0.29280E-03   -0.15868E-03 13519   0.748E-02    0.570E-02
RMM:   9    -0.636487606541E+03   -0.69381E-04   -0.10192E-03 13114   0.495E-02    0.501E-02
RMM:  10    -0.636487649115E+03   -0.42574E-04   -0.64304E-04 12693   0.387E-02    0.362E-02
RMM:  11    -0.636487671434E+03   -0.22319E-04   -0.38933E-04 12136   0.292E-02    0.126E-02
RMM:  12    -0.636487695271E+03   -0.23837E-04   -0.24865E-04 11773   0.233E-02    0.141E-02
RMM:  13    -0.636487707609E+03   -0.12338E-04   -0.14697E-04 11284   0.187E-02    0.892E-03
RMM:  14    -0.636487715523E+03   -0.79145E-05   -0.88389E-05 10282   0.156E-02
  13 F= -.63648772E+03 E0= -.63643081E+03  d E =-.236084E+00
       N       E                     dE             d eps       ncg     rms          rms(c)
DAV:   1    -0.636313133531E+03    0.17457E+00   -0.46649E+01  8624   0.267E+01    0.506E+00
RMM:   2    -0.638336218050E+03   -0.20231E+01   -0.71968E+00 11509   0.769E+00    0.116E+01
RMM:   3    -0.636606928483E+03    0.17293E+01   -0.20787E+00 11092   0.423E+00    0.171E+00
RMM:   4    -0.636623200236E+03   -0.16272E-01   -0.50621E-01 13985   0.160E+00    0.228E+00
RMM:   5    -0.636591090370E+03    0.32110E-01   -0.14931E-01 13855   0.875E-01    0.135E+00
RMM:   6    -0.636578376659E+03    0.12714E-01   -0.74875E-02 14075   0.595E-01    0.826E-01
RMM:   7    -0.636584145525E+03   -0.57689E-02   -0.45784E-02 14299   0.451E-01    0.121E+00
RMM:   8    -0.636573785758E+03    0.10360E-01   -0.21894E-02 14159   0.321E-01    0.344E-01
RMM:   9    -0.636574553779E+03   -0.76802E-03   -0.11767E-02 14548   0.200E-01    0.385E-01
RMM:  10    -0.636573771797E+03    0.78198E-03   -0.63420E-03 14435   0.148E-01    0.114E-01
RMM:  11    -0.636574130829E+03   -0.35903E-03   -0.42647E-03 14416   0.102E-01    0.115E-01
RMM:  12    -0.636574294820E+03   -0.16399E-03   -0.24539E-03 14238   0.836E-02    0.714E-02
RMM:  13    -0.636574431777E+03   -0.13696E-03   -0.16276E-03 14358   0.662E-02    0.474E-02
RMM:  14    -0.636574554935E+03   -0.12316E-03   -0.11098E-03 13689   0.558E-02    0.641E-02
RMM:  15    -0.636574594714E+03   -0.39779E-04   -0.73799E-04 13514   0.474E-02    0.217E-02
RMM:  16    -0.636574640529E+03   -0.45814E-04   -0.54283E-04 13233   0.383E-02    0.129E-02
RMM:  17    -0.636574671420E+03   -0.30892E-04   -0.37186E-04 12980   0.322E-02    0.824E-03
RMM:  18    -0.636574695034E+03   -0.23614E-04   -0.26346E-04 12769   0.268E-02    0.567E-03
RMM:  19    -0.636574710965E+03   -0.15931E-04   -0.17713E-04 12267   0.223E-02    0.291E-03
RMM:  20    -0.636574720556E+03   -0.95909E-05   -0.11140E-04 10466   0.191E-02    0.176E-03
RMM:  21    -0.636574726751E+03   -0.61947E-05   -0.80044E-05  9635   0.174E-02
  14 F= -.63657473E+03 E0= -.63652102E+03  d E =-.870112E-01
       N       E                     dE             d eps       ncg     rms          rms(c)
DAV:   1    -0.636573839728E+03    0.88083E-03   -0.28391E-01 10640   0.210E+00    0.382E-01
RMM:   2    -0.636585938104E+03   -0.12098E-01   -0.44316E-02 11046   0.616E-01    0.101E+00
RMM:   3    -0.636575668846E+03    0.10269E-01   -0.12298E-02 10743   0.334E-01    0.190E-01
RMM:   4    -0.636575820715E+03   -0.15187E-03   -0.35971E-03 13889   0.135E-01    0.227E-01
RMM:   5    -0.636575426561E+03    0.39415E-03   -0.86796E-04 12483   0.718E-02    0.102E-01
RMM:   6    -0.636575386946E+03    0.39616E-04   -0.49974E-04 13055   0.474E-02    0.984E-02
RMM:   7    -0.636575363114E+03    0.23832E-04   -0.27666E-04 12279   0.395E-02    0.813E-02
RMM:   8    -0.636575319400E+03    0.43714E-04   -0.13414E-04 11432   0.261E-02    0.332E-02
RMM:   9    -0.636575322066E+03   -0.26659E-05   -0.68697E-05 10115   0.184E-02
  15 F= -.63657532E+03 E0= -.63652137E+03  d E =-.876065E-01
       N       E                     dE             d eps       ncg     rms          rms(c)
DAV:   1    -0.636213318137E+03    0.36200E+00   -0.45229E+01  8624   0.264E+01    0.341E+00
RMM:   2    -0.637315721694E+03   -0.11024E+01   -0.58094E+00 11320   0.695E+00    0.890E+00
RMM:   3    -0.636655766639E+03    0.65996E+00   -0.17636E+00 11761   0.355E+00    0.182E+00
RMM:   4    -0.636662137798E+03   -0.63712E-02   -0.36489E-01 14083   0.135E+00    0.182E+00
RMM:   5    -0.636641088850E+03    0.21049E-01   -0.10609E-01 14097   0.708E-01    0.108E+00
RMM:   6    -0.636632207332E+03    0.88815E-02   -0.53085E-02 14154   0.503E-01    0.637E-01
RMM:   7    -0.636636305894E+03   -0.40986E-02   -0.36315E-02 14294   0.393E-01    0.949E-01
RMM:   8    -0.636629483530E+03    0.68224E-02   -0.17425E-02 14283   0.287E-01    0.254E-01
RMM:   9    -0.636630069821E+03   -0.58629E-03   -0.98914E-03 14609   0.167E-01    0.242E-01
RMM:  10    -0.636630133979E+03   -0.64157E-04   -0.54740E-03 14491   0.127E-01    0.122E-01
RMM:  11    -0.636630413549E+03   -0.27957E-03   -0.35412E-03 14526   0.935E-02    0.966E-02
RMM:  12    -0.636630614374E+03   -0.20082E-03   -0.21866E-03 14094   0.758E-02    0.776E-02
RMM:  13    -0.636630745595E+03   -0.13122E-03   -0.14201E-03 14069   0.612E-02    0.459E-02
RMM:  14    -0.636630867963E+03   -0.12237E-03   -0.95978E-04 13817   0.522E-02    0.539E-02
RMM:  15    -0.636630918784E+03   -0.50821E-04   -0.65013E-04 13585   0.449E-02    0.233E-02
RMM:  16    -0.636630959415E+03   -0.40631E-04   -0.47105E-04 13216   0.360E-02    0.111E-02
RMM:  17    -0.636630987997E+03   -0.28582E-04   -0.32664E-04 12900   0.297E-02    0.805E-03
RMM:  18    -0.636631006745E+03   -0.18748E-04   -0.22043E-04 12514   0.245E-02    0.501E-03
RMM:  19    -0.636631019117E+03   -0.12372E-04   -0.14359E-04 11500   0.204E-02    0.278E-03
RMM:  20    -0.636631026675E+03   -0.75584E-05   -0.88282E-05  9756   0.178E-02
  16 F= -.63663103E+03 E0= -.63658220E+03  d E =-.557046E-01
       N       E                     dE             d eps       ncg     rms          rms(c)
DAV:   1    -0.636624168881E+03    0.68502E-02   -0.92706E-01  9408   0.375E+00    0.499E-01
RMM:   2    -0.636646652763E+03   -0.22484E-01   -0.11682E-01 11319   0.984E-01    0.120E+00
RMM:   3    -0.636633099804E+03    0.13553E-01   -0.35726E-02 11479   0.508E-01    0.239E-01
RMM:   4    -0.636633375609E+03   -0.27581E-03   -0.75595E-03 13869   0.193E-01    0.265E-01
RMM:   5    -0.636632900338E+03    0.47527E-03   -0.20991E-03 13482   0.997E-02    0.148E-01
RMM:   6    -0.636632741847E+03    0.15849E-03   -0.10296E-03 13525   0.695E-02    0.929E-02
RMM:   7    -0.636632801135E+03   -0.59288E-04   -0.70527E-04 13375   0.543E-02    0.132E-01
RMM:   8    -0.636632664696E+03    0.13644E-03   -0.32116E-04 12302   0.411E-02    0.385E-02
RMM:   9    -0.636632670961E+03   -0.62657E-05   -0.17880E-04 11056   0.243E-02    0.377E-02
RMM:  10    -0.636632666203E+03    0.47582E-05   -0.93073E-05 10242   0.182E-02
  17 F= -.63663267E+03 E0= -.63658316E+03  d E =-.573441E-01
       N       E                     dE             d eps       ncg     rms          rms(c)
DAV:   1    -0.636553871432E+03    0.78800E-01   -0.11001E+01  8624   0.121E+01    0.757E-01
RMM:   2    -0.636645693167E+03   -0.91822E-01   -0.89965E-01 12421   0.271E+00    0.114E+00
RMM:   3    -0.636659755472E+03   -0.14062E-01   -0.26179E-01 13537   0.112E+00    0.635E-01
RMM:   4    -0.636660245081E+03   -0.48961E-03   -0.41162E-02 14092   0.456E-01    0.430E-01
RMM:   5    -0.636659579579E+03    0.66550E-03   -0.10935E-02 14318   0.214E-01    0.305E-01
RMM:   6    -0.636659303809E+03    0.27577E-03   -0.52561E-03 13941   0.137E-01    0.227E-01
RMM:   7    -0.636659108108E+03    0.19570E-03   -0.34424E-03 13859   0.119E-01    0.198E-01
RMM:   8    -0.636658934185E+03    0.17392E-03   -0.19689E-03 14007   0.861E-02    0.984E-02
RMM:   9    -0.636658957706E+03   -0.23521E-04   -0.11112E-03 13832   0.584E-02    0.579E-02
RMM:  10    -0.636658996634E+03   -0.38928E-04   -0.71390E-04 13125   0.430E-02    0.475E-02
RMM:  11    -0.636659016558E+03   -0.19924E-04   -0.43099E-04 12592   0.322E-02    0.262E-02
RMM:  12    -0.636659038024E+03   -0.21466E-04   -0.27144E-04 12094   0.258E-02    0.266E-02
RMM:  13    -0.636659048390E+03   -0.10366E-04   -0.16947E-04 11847   0.207E-02    0.160E-02
RMM:  14    -0.636659056839E+03   -0.84489E-05   -0.10311E-04 11038   0.168E-02    0.154E-02
RMM:  15    -0.636659059901E+03   -0.30617E-05   -0.59640E-05  9894   0.148E-02
  18 F= -.63665906E+03 E0= -.63661132E+03  d E =-.263937E-01
       N       E                     dE             d eps       ncg     rms          rms(c)
DAV:   1    -0.636648293879E+03    0.10763E-01   -0.13233E+00  9408   0.421E+00    0.264E-01
RMM:   2    -0.636659458943E+03   -0.11165E-01   -0.10868E-01 12528   0.938E-01    0.409E-01
RMM:   3    -0.636661012179E+03   -0.15532E-02   -0.31630E-02 13565   0.389E-01    0.216E-01
RMM:   4    -0.636661094114E+03   -0.81936E-04   -0.51215E-03 14067   0.160E-01    0.148E-01
RMM:   5    -0.636661033795E+03    0.60319E-04   -0.14557E-03 13701   0.769E-02    0.107E-01
RMM:   6    -0.636661007863E+03    0.25932E-04   -0.71828E-04 12975   0.503E-02    0.790E-02
RMM:   7    -0.636660994516E+03    0.13347E-04   -0.47098E-04 12987   0.435E-02    0.728E-02
RMM:   8    -0.636660970722E+03    0.23794E-04   -0.27698E-04 11919   0.329E-02    0.333E-02
RMM:   9    -0.636660978500E+03   -0.77775E-05   -0.16329E-04 11059   0.233E-02    0.271E-02
RMM:  10    -0.636660981676E+03   -0.31761E-05   -0.97849E-05 10239   0.184E-02
  19 F= -.63666098E+03 E0= -.63661379E+03  d E =-.283155E-01
       N       E                     dE             d eps       ncg     rms          rms(c)
DAV:   1    -0.636629891336E+03    0.31087E-01   -0.46707E+00  8876   0.769E+00    0.427E-01
RMM:   2    -0.636661389660E+03   -0.31498E-01   -0.34945E-01 12115   0.165E+00    0.281E-01
RMM:   3    -0.636672845084E+03   -0.11455E-01   -0.10669E-01 13560   0.687E-01    0.376E-01
RMM:   4    -0.636672770221E+03    0.74863E-04   -0.13988E-02 13881   0.268E-01    0.242E-01
RMM:   5    -0.636672590023E+03    0.18020E-03   -0.38570E-03 13717   0.121E-01    0.161E-01
RMM:   6    -0.636672636430E+03   -0.46407E-04   -0.19136E-03 13426   0.815E-02    0.162E-01
RMM:   7    -0.636672472306E+03    0.16412E-03   -0.13163E-03 13230   0.757E-02    0.888E-02
RMM:   8    -0.636672502149E+03   -0.29844E-04   -0.75919E-04 12876   0.497E-02    0.812E-02
RMM:   9    -0.636672481217E+03    0.20933E-04   -0.42518E-04 11893   0.381E-02    0.343E-02
RMM:  10    -0.636672491198E+03   -0.99810E-05   -0.26545E-04 11604   0.266E-02    0.287E-02
RMM:  11    -0.636672498511E+03   -0.73137E-05   -0.16828E-04 11106   0.205E-02    0.173E-02
RMM:  12    -0.636672502802E+03   -0.42907E-05   -0.10693E-04 10677   0.171E-02    0.674E-03
RMM:  13    -0.636672508086E+03   -0.52843E-05   -0.61462E-05  9817   0.135E-02
  20 F= -.63667251E+03 E0= -.63662557E+03  d E =-.115264E-01
       N       E                     dE             d eps       ncg     rms          rms(c)
DAV:   1    -0.636665548332E+03    0.69545E-02   -0.92143E-01  9408   0.341E+00    0.189E-01
RMM:   2    -0.636671807070E+03   -0.62587E-02   -0.69217E-02 12270   0.731E-01    0.129E-01
RMM:   3    -0.636674100907E+03   -0.22938E-02   -0.21094E-02 13579   0.302E-01    0.186E-01
RMM:   4    -0.636674063545E+03    0.37361E-04   -0.28725E-03 13659   0.121E-01    0.111E-01
RMM:   5    -0.636674024796E+03    0.38749E-04   -0.82728E-04 12697   0.552E-02    0.720E-02
RMM:   6    -0.636674036151E+03   -0.11355E-04   -0.43002E-04 12025   0.391E-02    0.704E-02
RMM:   7    -0.636674010119E+03    0.26032E-04   -0.29187E-04 12186   0.348E-02    0.424E-02
RMM:   8    -0.636674014916E+03   -0.47971E-05   -0.17255E-04 10804   0.242E-02    0.346E-02
RMM:   9    -0.636674012734E+03    0.21818E-05   -0.96566E-05 10154   0.190E-02
  21 F= -.63667401E+03 E0= -.63662713E+03  d E =-.130311E-01
       N       E                     dE             d eps       ncg     rms          rms(c)
DAV:   1    -0.636643040516E+03    0.30974E-01   -0.35262E+00  8680   0.715E+00    0.481E-01
RMM:   2    -0.636677518552E+03   -0.34478E-01   -0.32854E-01 12212   0.159E+00    0.758E-01
RMM:   3    -0.636681325248E+03   -0.38067E-02   -0.98871E-02 13625   0.684E-01    0.343E-01
RMM:   4    -0.636681669278E+03   -0.34403E-03   -0.13467E-02 14105   0.254E-01    0.282E-01
RMM:   5    -0.636681289561E+03    0.37972E-03   -0.38960E-03 13923   0.128E-01    0.176E-01
RMM:   6    -0.636681223848E+03    0.65713E-04   -0.19661E-03 13666   0.868E-02    0.138E-01
RMM:   7    -0.636681246288E+03   -0.22439E-04   -0.14106E-03 13546   0.723E-02    0.160E-01
RMM:   8    -0.636681089456E+03    0.15683E-03   -0.78109E-04 13152   0.535E-02    0.516E-02
RMM:   9    -0.636681118951E+03   -0.29495E-04   -0.45428E-04 12287   0.362E-02    0.466E-02
RMM:  10    -0.636681128100E+03   -0.91489E-05   -0.27859E-04 11870   0.282E-02    0.228E-02
RMM:  11    -0.636681140491E+03   -0.12391E-04   -0.17574E-04 11316   0.211E-02    0.157E-02
RMM:  12    -0.636681150559E+03   -0.10068E-04   -0.10820E-04 11017   0.168E-02    0.147E-02
RMM:  13    -0.636681154417E+03   -0.38583E-05   -0.52583E-05  9510   0.136E-02
  22 F= -.63668115E+03 E0= -.63663402E+03  d E =-.714168E-02
       N       E                     dE             d eps       ncg     rms          rms(c)
DAV:   1    -0.636675467828E+03    0.56827E-02   -0.58327E-01  9408   0.291E+00    0.193E-01
RMM:   2    -0.636681143310E+03   -0.56755E-02   -0.54475E-02 12298   0.648E-01    0.295E-01
RMM:   3    -0.636681834925E+03   -0.69161E-03   -0.16196E-02 13658   0.276E-01    0.139E-01
RMM:   4    -0.636681911998E+03   -0.77073E-04   -0.25029E-03 13771   0.107E-01    0.109E-01
RMM:   5    -0.636681864978E+03    0.47020E-04   -0.70902E-04 12576   0.540E-02    0.718E-02
RMM:   6    -0.636681856952E+03    0.80262E-05   -0.36869E-04 12061   0.384E-02    0.552E-02
RMM:   7    -0.636681858253E+03   -0.13010E-05   -0.26331E-04 11890   0.318E-02    0.577E-02
RMM:   8    -0.636681841562E+03    0.16691E-04   -0.14775E-04 10815   0.241E-02    0.217E-02
RMM:   9    -0.636681847230E+03   -0.56679E-05   -0.84431E-05 10209   0.170E-02
  23 F= -.63668185E+03 E0= -.63663454E+03  d E =-.783450E-02
       N       E                     dE             d eps       ncg     rms          rms(c)
DAV:   1    -0.636652207166E+03    0.29634E-01   -0.31908E+00  8624   0.702E+00    0.795E-01
RMM:   2    -0.636712315070E+03   -0.60108E-01   -0.37507E-01 11816   0.174E+00    0.178E+00
RMM:   3    -0.636685371281E+03    0.26944E-01   -0.10991E-01 12102   0.885E-01    0.403E-01
RMM:   4    -0.636686758744E+03   -0.13875E-02   -0.25382E-02 14157   0.349E-01    0.435E-01
RMM:   5    -0.636685655650E+03    0.11031E-02   -0.76108E-03 13874   0.178E-01    0.239E-01
RMM:   6    -0.636685385175E+03    0.27048E-03   -0.33725E-03 13831   0.123E-01    0.169E-01
RMM:   7    -0.636685522268E+03   -0.13709E-03   -0.23144E-03 13940   0.979E-02    0.207E-01
RMM:   8    -0.636685187035E+03    0.33523E-03   -0.11848E-03 13698   0.714E-02    0.532E-02
RMM:   9    -0.636685232240E+03   -0.45205E-04   -0.65181E-04 12885   0.437E-02    0.586E-02
RMM:  10    -0.636685232655E+03   -0.41476E-06   -0.37523E-04 12327   0.331E-02    0.215E-02
RMM:  11    -0.636685252787E+03   -0.20132E-04   -0.24873E-04 11721   0.245E-02    0.222E-02
RMM:  12    -0.636685261958E+03   -0.91712E-05   -0.14710E-04 11364   0.201E-02    0.147E-02
RMM:  13    -0.636685267401E+03   -0.54424E-05   -0.88706E-05 10601   0.162E-02
  24 F= -.63668527E+03 E0= -.63663748E+03  d E =-.342017E-02
       N       E                     dE             d eps       ncg     rms          rms(c)
DAV:   1    -0.636685152135E+03    0.10982E-03   -0.14882E-02 10640   0.478E-01    0.556E-02
RMM:   2    -0.636685465704E+03   -0.31357E-03   -0.17642E-03 11071   0.119E-01    0.140E-01
RMM:   3    -0.636685304303E+03    0.16140E-03   -0.48075E-04 10543   0.607E-02    0.361E-02
RMM:   4    -0.636685312424E+03   -0.81219E-05   -0.13946E-04 10901   0.267E-02    0.387E-02
RMM:   5    -0.636685299695E+03    0.12729E-04   -0.26402E-05  6490   0.142E-02    0.160E-02
RMM:   6    -0.636685298397E+03    0.12986E-05   -0.12934E-05  5599   0.108E-02
  25 F= -.63668530E+03 E0= -.63663755E+03  d E =-.345117E-02
       N       E                     dE             d eps       ncg     rms          rms(c)
DAV:   1    -0.636654983892E+03    0.30316E-01   -0.31795E+00  8624   0.715E+00    0.942E-01
RMM:   2    -0.636738139970E+03   -0.83156E-01   -0.43080E-01 11469   0.187E+00    0.235E+00
RMM:   3    -0.636687619883E+03    0.50520E-01   -0.12564E-01 11468   0.970E-01    0.500E-01
RMM:   4    -0.636689167261E+03   -0.15474E-02   -0.30192E-02 14299   0.388E-01    0.555E-01
RMM:   5    -0.636686866952E+03    0.23003E-02   -0.76702E-03 13644   0.199E-01    0.255E-01
RMM:   6    -0.636686642584E+03    0.22437E-03   -0.36304E-03 13827   0.124E-01    0.238E-01
RMM:   7    -0.636686666707E+03   -0.24123E-04   -0.25360E-03 13813   0.110E-01    0.243E-01
RMM:   8    -0.636686255523E+03    0.41118E-03   -0.13582E-03 13791   0.783E-02    0.932E-02
RMM:   9    -0.636686256784E+03   -0.12613E-05   -0.69983E-04 13136   0.500E-02    0.669E-02
RMM:  10    -0.636686259104E+03   -0.23196E-05   -0.37592E-04 12256   0.353E-02    0.287E-02
RMM:  11    -0.636686280726E+03   -0.21622E-04   -0.23997E-04 11893   0.252E-02    0.254E-02
RMM:  12    -0.636686296573E+03   -0.15847E-04   -0.14747E-04 11313   0.206E-02    0.190E-02
RMM:  13    -0.636686308555E+03   -0.11982E-04   -0.92023E-05 10770   0.166E-02    0.145E-02
RMM:  14    -0.636686315350E+03   -0.67949E-05   -0.54113E-05  9698   0.144E-02
  26 F= -.63668632E+03 E0= -.63663834E+03  d E =-.101695E-02
       N       E                     dE             d eps       ncg     rms          rms(c)
DAV:   1    -0.636682227820E+03    0.40807E-02   -0.48145E-01  9072   0.277E+00    0.367E-01
RMM:   2    -0.636694668883E+03   -0.12441E-01   -0.64535E-02 11410   0.719E-01    0.891E-01
RMM:   3    -0.636687134814E+03    0.75341E-02   -0.18798E-02 11295   0.376E-01    0.186E-01
RMM:   4    -0.636687367761E+03   -0.23295E-03   -0.44761E-03 14212   0.149E-01    0.211E-01
RMM:   5    -0.636687035498E+03    0.33226E-03   -0.10524E-03 13005   0.751E-02    0.100E-01
RMM:   6    -0.636686987239E+03    0.48260E-04   -0.50050E-04 13163   0.466E-02    0.882E-02
RMM:   7    -0.636686999407E+03   -0.12168E-04   -0.35911E-04 12958   0.428E-02    0.994E-02
RMM:   8    -0.636686922076E+03    0.77331E-04   -0.18364E-04 11959   0.309E-02    0.357E-02
RMM:   9    -0.636686919978E+03    0.20981E-05   -0.92391E-05 10474   0.203E-02
  27 F= -.63668692E+03 E0= -.63663909E+03  d E =-.162158E-02
       N       E                     dE             d eps       ncg     rms          rms(c)
DAV:   1    -0.636679124149E+03    0.77979E-02   -0.70776E-01  8960   0.329E+00    0.207E-01
RMM:   2    -0.636686354672E+03   -0.72305E-02   -0.74025E-02 11737   0.744E-01    0.267E-01
RMM:   3    -0.636688132235E+03   -0.17776E-02   -0.23025E-02 13638   0.318E-01    0.169E-01
RMM:   4    -0.636688143361E+03   -0.11126E-04   -0.28395E-03 13782   0.117E-01    0.110E-01
RMM:   5    -0.636688103458E+03    0.39903E-04   -0.62560E-04 12701   0.519E-02    0.812E-02
RMM:   6    -0.636688086782E+03    0.16677E-04   -0.33363E-04 12099   0.367E-02    0.668E-02
RMM:   7    -0.636688075955E+03    0.10827E-04   -0.24035E-04 12128   0.321E-02    0.607E-02
RMM:   8    -0.636688047957E+03    0.27998E-04   -0.13614E-04 11233   0.249E-02    0.179E-02
RMM:   9    -0.636688050336E+03   -0.23795E-05   -0.70062E-05  9861   0.170E-02
  28 F= -.63668805E+03 E0= -.63663998E+03  d E =-.113036E-02
       N       E                     dE             d eps       ncg     rms          rms(c)
DAV:   1    -0.636687435287E+03    0.61267E-03   -0.52183E-02  9436   0.894E-01    0.575E-02
RMM:   2    -0.636687982570E+03   -0.54728E-03   -0.55894E-03 12305   0.202E-01    0.787E-02
RMM:   3    -0.636688106605E+03   -0.12403E-03   -0.17321E-03 13233   0.866E-02    0.455E-02
RMM:   4    -0.636688115373E+03   -0.87672E-05   -0.27692E-04 11724   0.353E-02    0.321E-02
RMM:   5    -0.636688112981E+03    0.23919E-05   -0.71981E-05  9855   0.187E-02
  29 F= -.63668811E+03 E0= -.63663998E+03  d E =-.119300E-02
       N       E                     dE             d eps       ncg     rms          rms(c)
DAV:   1    -0.636684946557E+03    0.31688E-02   -0.34667E-01  9324   0.222E+00    0.116E-01
RMM:   2    -0.636687828651E+03   -0.28821E-02   -0.30852E-02 12099   0.478E-01    0.115E-01
RMM:   3    -0.636688785630E+03   -0.95698E-03   -0.90357E-03 13579   0.200E-01    0.133E-01
RMM:   4    -0.636688751081E+03    0.34549E-04   -0.12870E-03 13484   0.768E-02    0.665E-02
RMM:   5    -0.636688743469E+03    0.76124E-05   -0.31734E-04 11836   0.353E-02    0.486E-02
RMM:   6    -0.636688736420E+03    0.70488E-05   -0.16064E-04 11125   0.251E-02    0.370E-02
RMM:   7    -0.636688740200E+03   -0.37804E-05   -0.12172E-04 10939   0.220E-02    0.435E-02
RMM:   8    -0.636688729221E+03    0.10979E-04   -0.69892E-05 10165   0.177E-02    0.134E-02
RMM:   9    -0.636688729968E+03   -0.74704E-06   -0.30842E-05  8547   0.127E-02
  30 F= -.63668873E+03 E0= -.63664055E+03  d E =-.616988E-03
       N       E                     dE             d eps       ncg     rms          rms(c)
DAV:   1    -0.636686989009E+03    0.17402E-02   -0.16476E-01  9408   0.153E+00    0.843E-02
RMM:   2    -0.636688352844E+03   -0.13638E-02   -0.14799E-02 12151   0.328E-01    0.762E-02
RMM:   3    -0.636688817709E+03   -0.46487E-03   -0.43437E-03 13524   0.140E-01    0.942E-02
RMM:   4    -0.636688801959E+03    0.15750E-04   -0.68635E-04 12995   0.557E-02    0.430E-02
RMM:   5    -0.636688801419E+03    0.54043E-06   -0.17039E-04 10890   0.261E-02    0.319E-02
RMM:   6    -0.636688798790E+03    0.26285E-05   -0.88257E-05 10385   0.186E-02
  31 F= -.63668880E+03 E0= -.63664057E+03  d E =-.685810E-03
       N       E                     dE             d eps       ncg     rms          rms(c)
DAV:   1    -0.636688645517E+03    0.15590E-03   -0.15568E-02  9380   0.474E-01    0.295E-02
RMM:   2    -0.636688822428E+03   -0.17691E-03   -0.14271E-03 10117   0.104E-01    0.771E-02
RMM:   3    -0.636688811433E+03    0.10995E-04   -0.39901E-04 10512   0.474E-02    0.160E-02
RMM:   4    -0.636688816772E+03   -0.53387E-05   -0.65304E-05  7275   0.195E-02
  32 F= -.63668882E+03 E0= -.63664065E+03  d E =-.703791E-03
       N       E                     dE             d eps       ncg     rms          rms(c)
DAV:   1    -0.636688786826E+03    0.24608E-04   -0.23650E-03 10108   0.184E-01    0.132E-02
RMM:   2    -0.636688809690E+03   -0.22864E-04   -0.21842E-04 10388   0.395E-02    0.238E-02
RMM:   3    -0.636688810859E+03   -0.11693E-05   -0.56026E-05  6935   0.186E-02
  33 F= -.63668881E+03 E0= -.63664057E+03  d E =-.697878E-03
       N       E                     dE             d eps       ncg     rms          rms(c)
DAV:   1    -0.636688804362E+03    0.53276E-05   -0.10657E-03  9380   0.124E-01    0.959E-03
RMM:   2    -0.636688820428E+03   -0.16066E-04   -0.95131E-05  7708   0.258E-02    0.319E-02
RMM:   3    -0.636688813211E+03    0.72174E-05   -0.21138E-05  5575   0.132E-02
  34 F= -.63668881E+03 E0= -.63664061E+03  d E =-.700230E-03
       N       E                     dE             d eps       ncg     rms          rms(c)
DAV:   1    -0.636688809758E+03    0.10670E-04   -0.26876E-04  9492   0.623E-02    0.684E-03
RMM:   2    -0.636688817541E+03   -0.77837E-05   -0.28501E-05  5822   0.140E-02
  35 F= -.63668882E+03 E0= -.63664064E+03  d E =-.704561E-03
       N       E                     dE             d eps       ncg     rms          rms(c)
DAV:   1    -0.636688812249E+03   -0.24918E-05   -0.11988E-04 10164   0.426E-02    0.452E-03
RMM:   2    -0.636688815744E+03   -0.34943E-05   -0.10689E-05  5118   0.894E-03
  36 F= -.63668882E+03 E0= -.63664064E+03  d E =-.702763E-03
       N       E                     dE             d eps       ncg     rms          rms(c)
DAV:   1    -0.636686570259E+03    0.22420E-02   -0.21005E-01  8876   0.176E+00    0.940E-02
RMM:   2    -0.636688427917E+03   -0.18577E-02   -0.20004E-02 11741   0.376E-01    0.894E-02
RMM:   3    -0.636689098226E+03   -0.67031E-03   -0.62854E-03 13400   0.162E-01    0.101E-01
RMM:   4    -0.636689077810E+03    0.20417E-04   -0.71545E-04 13189   0.597E-02    0.526E-02
RMM:   5    -0.636689067100E+03    0.10710E-04   -0.17522E-04 11047   0.274E-02    0.335E-02
RMM:   6    -0.636689065619E+03    0.14809E-05   -0.84655E-05 10301   0.186E-02
  37 F= -.63668907E+03 E0= -.63664068E+03  d E =-.249875E-03
       N       E                     dE             d eps       ncg     rms          rms(c)
DAV:   1    -0.636689069266E+03   -0.21664E-05   -0.28599E-04 12740   0.476E-02    0.285E-02
RMM:   2    -0.636689185639E+03   -0.11637E-03   -0.17700E-04  8943   0.284E-02    0.115E-01
RMM:   3    -0.636689066010E+03    0.11963E-03   -0.53188E-05  6956   0.208E-02    0.172E-02
RMM:   4    -0.636689063088E+03    0.29222E-05   -0.76222E-06  5134   0.723E-03
  38 F= -.63668906E+03 E0= -.63664072E+03  d E =-.247344E-03
       N       E                     dE             d eps       ncg     rms          rms(c)
DAV:   1    -0.636689057508E+03    0.85022E-05   -0.62660E-04  9156   0.970E-02    0.954E-03
RMM:   2    -0.636689073342E+03   -0.15834E-04   -0.78252E-05  7561   0.234E-02    0.340E-02
RMM:   3    -0.636689064736E+03    0.86055E-05   -0.21546E-05  5528   0.133E-02
  39 F= -.63668906E+03 E0= -.63664073E+03  d E =-.248992E-03
       N       E                     dE             d eps       ncg     rms          rms(c)
DAV:   1    -0.636688754369E+03    0.31897E-03   -0.50854E-02  8904   0.773E-01    0.589E-02
RMM:   2    -0.636689171197E+03   -0.41683E-03   -0.37609E-03 12313   0.175E-01    0.105E-01
RMM:   3    -0.636689159716E+03    0.11480E-04   -0.10957E-03 12999   0.767E-02    0.425E-02
RMM:   4    -0.636689166737E+03   -0.70212E-05   -0.21721E-04 11947   0.329E-02    0.385E-02
RMM:   5    -0.636689158468E+03    0.82697E-05   -0.64940E-05  9959   0.182E-02
  40 F= -.63668916E+03 E0= -.63664074E+03  d E =-.937314E-04
