  64  64   0   0
  0.1129557E+02  0.8932500E-09  0.9055600E-09  0.8937200E-09  0.5000000E-15
  1.000000000000000E-004
  CAR 
 HECN                                    
     14.31771417    -50.62063630  301      8.46484602      1.00000000
    -50.621  0.0000E+00  0.0000E+00
    -50.404  0.0000E+00  0.0000E+00
    -50.188  0.0000E+00  0.0000E+00
    -49.971  0.0000E+00  0.0000E+00
    -49.755  0.0000E+00  0.0000E+00
    -49.538  0.0000E+00  0.0000E+00
    -49.322  0.0000E+00  0.0000E+00
    -49.105  0.0000E+00  0.0000E+00
    -48.889  0.0000E+00  0.0000E+00
    -48.672  0.0000E+00  0.0000E+00
    -48.456  0.0000E+00  0.0000E+00
    -48.240  0.3077E-16  0.6661E-17
    -48.023  0.2524E-07  0.5463E-08
    -47.807  0.2375E-02  0.5141E-03
    -47.590  0.7915E-01  0.1765E-01
    -47.374  0.1788E+00  0.5636E-01
    -47.157  0.1842E+00  0.9623E-01
    -46.941  0.1093E+00  0.1199E+00
    -46.724  0.4780E-03  0.1200E+00
    -46.508  0.5064E-09  0.1200E+00
    -46.291  0.0000E+00  0.1200E+00
    -46.075  0.0000E+00  0.1200E+00
    -45.858  0.0000E+00  0.1200E+00
    -45.642  0.0000E+00  0.1200E+00
    -45.426  0.0000E+00  0.1200E+00
    -45.209  0.0000E+00  0.1200E+00
    -44.993  0.0000E+00  0.1200E+00
    -44.776  0.0000E+00  0.1200E+00
    -44.560  0.0000E+00  0.1200E+00
    -44.343  0.0000E+00  0.1200E+00
    -44.127  0.0000E+00  0.1200E+00
    -43.910  0.0000E+00  0.1200E+00
    -43.694  0.0000E+00  0.1200E+00
    -43.477  0.0000E+00  0.1200E+00
    -43.261  0.0000E+00  0.1200E+00
    -43.044  0.0000E+00  0.1200E+00
    -42.828  0.0000E+00  0.1200E+00
    -42.612  0.0000E+00  0.1200E+00
    -42.395  0.0000E+00  0.1200E+00
    -42.179  0.0000E+00  0.1200E+00
    -41.962  0.0000E+00  0.1200E+00
    -41.746  0.0000E+00  0.1200E+00
    -41.529  0.0000E+00  0.1200E+00
    -41.313  0.0000E+00  0.1200E+00
    -41.096  0.1593E-08  0.1200E+00
    -40.880  0.7042E-03  0.1202E+00
    -40.663  0.1276E+00  0.1478E+00
    -40.447  0.1479E+00  0.1798E+00
    -40.231  0.4961E-01  0.1905E+00
    -40.014  0.2176E+00  0.2376E+00
    -39.798  0.6494E-01  0.2517E+00
    -39.581  0.3835E-01  0.2600E+00
    -39.365  0.4892E-04  0.2600E+00
    -39.148  0.1092E-10  0.2600E+00
    -38.932  0.0000E+00  0.2600E+00
    -38.715  0.0000E+00  0.2600E+00
    -38.499  0.0000E+00  0.2600E+00
    -38.282  0.0000E+00  0.2600E+00
    -38.066  0.0000E+00  0.2600E+00
    -37.849  0.0000E+00  0.2600E+00
    -37.633  0.0000E+00  0.2600E+00
    -37.417  0.0000E+00  0.2600E+00
    -37.200  0.0000E+00  0.2600E+00
    -36.984  0.0000E+00  0.2600E+00
    -36.767  0.0000E+00  0.2600E+00
    -36.551  0.0000E+00  0.2600E+00
    -36.334  0.0000E+00  0.2600E+00
    -36.118  0.0000E+00  0.2600E+00
    -35.901  0.3077E-16  0.2600E+00
    -35.685  0.2331E-07  0.2600E+00
    -35.468  0.2293E-02  0.2605E+00
    -35.252  0.9872E-01  0.2819E+00
    -35.035  0.7418E+00  0.4424E+00
    -34.819  0.7571E+00  0.6063E+00
    -34.603  0.6307E-01  0.6200E+00
    -34.386  0.1125E-03  0.6200E+00
    -34.170  0.5089E-10  0.6200E+00
    -33.953  0.0000E+00  0.6200E+00
    -33.737  0.0000E+00  0.6200E+00
    -33.520  0.0000E+00  0.6200E+00
    -33.304  0.0000E+00  0.6200E+00
    -33.087  0.0000E+00  0.6200E+00
    -32.871  0.0000E+00  0.6200E+00
    -32.654  0.0000E+00  0.6200E+00
    -32.438  0.0000E+00  0.6200E+00
    -32.221  0.0000E+00  0.6200E+00
    -32.005  0.0000E+00  0.6200E+00
    -31.789  0.0000E+00  0.6200E+00
    -31.572  0.0000E+00  0.6200E+00
    -31.356  0.1673E-10  0.6200E+00
    -31.139  0.8521E-04  0.6200E+00
    -30.923  0.1088E+00  0.6436E+00
    -30.706  0.7636E+00  0.8088E+00
    -30.490  0.6808E+00  0.9562E+00
    -30.273  0.1098E+00  0.9800E+00
    -30.057  0.1235E-03  0.9800E+00
    -29.840  0.3844E-10  0.9800E+00
    -29.624  0.0000E+00  0.9800E+00
    -29.407  0.0000E+00  0.9800E+00
    -29.191  0.0000E+00  0.9800E+00
    -28.975  0.0000E+00  0.9800E+00
    -28.758  0.0000E+00  0.9800E+00
    -28.542  0.0000E+00  0.9800E+00
    -28.325  0.0000E+00  0.9800E+00
    -28.109  0.0000E+00  0.9800E+00
    -27.892  0.0000E+00  0.9800E+00
    -27.676  0.0000E+00  0.9800E+00
    -27.459  0.0000E+00  0.9800E+00
    -27.243  0.0000E+00  0.9800E+00
    -27.026  0.0000E+00  0.9800E+00
    -26.810  0.0000E+00  0.9800E+00
    -26.593  0.0000E+00  0.9800E+00
    -26.377  0.0000E+00  0.9800E+00
    -26.161  0.0000E+00  0.9800E+00
    -25.944  0.0000E+00  0.9800E+00
    -25.728  0.0000E+00  0.9800E+00
    -25.511  0.0000E+00  0.9800E+00
    -25.295  0.0000E+00  0.9800E+00
    -25.078  0.0000E+00  0.9800E+00
    -24.862  0.0000E+00  0.9800E+00
    -24.645  0.0000E+00  0.9800E+00
    -24.429  0.1910E-13  0.9800E+00
    -24.212  0.1326E-05  0.9800E+00
    -23.996  0.1560E-01  0.9834E+00
    -23.779  0.2280E+00  0.1033E+01
    -23.563  0.4389E+00  0.1128E+01
    -23.347  0.5615E+00  0.1249E+01
    -23.130  0.3801E+00  0.1332E+01
    -22.914  0.3899E-01  0.1340E+01
    -22.697  0.4791E-01  0.1350E+01
    -22.481  0.2164E+00  0.1397E+01
    -22.264  0.3827E+00  0.1480E+01
    -22.048  0.9167E+00  0.1678E+01
    -21.831  0.3524E+00  0.1755E+01
    -21.615  0.2425E-01  0.1760E+01
    -21.398  0.8325E-05  0.1760E+01
    -21.182  0.4619E-12  0.1760E+01
    -20.965  0.0000E+00  0.1760E+01
    -20.749  0.0000E+00  0.1760E+01
    -20.533  0.0000E+00  0.1760E+01
    -20.316  0.0000E+00  0.1760E+01
    -20.100  0.0000E+00  0.1760E+01
    -19.883  0.0000E+00  0.1760E+01
    -19.667  0.3076E-09  0.1760E+01
    -19.450  0.2854E-03  0.1760E+01
    -19.234  0.6005E-01  0.1773E+01
    -19.017  0.2453E+00  0.1826E+01
    -18.801  0.4179E+00  0.1917E+01
    -18.584  0.1991E+00  0.1960E+01
    -18.368  0.6690E+00  0.2105E+01
    -18.151  0.2552E+00  0.2160E+01
    -17.935  0.9338E-01  0.2180E+01
    -17.719  0.9038E-04  0.2180E+01
    -17.502  0.1723E-10  0.2180E+01
    -17.286  0.0000E+00  0.2180E+01
    -17.069  0.0000E+00  0.2180E+01
    -16.853  0.0000E+00  0.2180E+01
    -16.636  0.0000E+00  0.2180E+01
    -16.420  0.0000E+00  0.2180E+01
    -16.203  0.0000E+00  0.2180E+01
    -15.987  0.0000E+00  0.2180E+01
    -15.770  0.0000E+00  0.2180E+01
    -15.554  0.0000E+00  0.2180E+01
    -15.337  0.0000E+00  0.2180E+01
    -15.121  0.0000E+00  0.2180E+01
    -14.905  0.0000E+00  0.2180E+01
    -14.688  0.0000E+00  0.2180E+01
    -14.472  0.0000E+00  0.2180E+01
    -14.255  0.0000E+00  0.2180E+01
    -14.039  0.0000E+00  0.2180E+01
    -13.822  0.0000E+00  0.2180E+01
    -13.606  0.0000E+00  0.2180E+01
    -13.389  0.0000E+00  0.2180E+01
    -13.173  0.0000E+00  0.2180E+01
    -12.956  0.0000E+00  0.2180E+01
    -12.740  0.0000E+00  0.2180E+01
    -12.523  0.0000E+00  0.2180E+01
    -12.307  0.0000E+00  0.2180E+01
    -12.091  0.0000E+00  0.2180E+01
    -11.874  0.0000E+00  0.2180E+01
    -11.658  0.0000E+00  0.2180E+01
    -11.441  0.0000E+00  0.2180E+01
    -11.225  0.0000E+00  0.2180E+01
    -11.008  0.0000E+00  0.2180E+01
    -10.792  0.0000E+00  0.2180E+01
    -10.575  0.0000E+00  0.2180E+01
    -10.359  0.0000E+00  0.2180E+01
    -10.142  0.0000E+00  0.2180E+01
     -9.926  0.0000E+00  0.2180E+01
     -9.709  0.0000E+00  0.2180E+01
     -9.493  0.0000E+00  0.2180E+01
     -9.277  0.0000E+00  0.2180E+01
     -9.060  0.0000E+00  0.2180E+01
     -8.844  0.0000E+00  0.2180E+01
     -8.627  0.0000E+00  0.2180E+01
     -8.411  0.0000E+00  0.2180E+01
     -8.194  0.1900E-18  0.2180E+01
     -7.978  0.2459E-09  0.2180E+01
     -7.761  0.6586E-04  0.2180E+01
     -7.545  0.1842E-01  0.2184E+01
     -7.328  0.7362E-01  0.2200E+01
     -7.112  0.1073E+00  0.2223E+01
     -6.895  0.1622E+00  0.2258E+01
     -6.679  0.7315E-01  0.2274E+01
     -6.463  0.1661E+00  0.2310E+01
     -6.246  0.1778E+00  0.2349E+01
     -6.030  0.2118E+00  0.2394E+01
     -5.813  0.1493E+00  0.2427E+01
     -5.597  0.6103E-01  0.2440E+01
     -5.380  0.3299E-03  0.2440E+01
     -5.164  0.4173E-09  0.2440E+01
     -4.947  0.4895E-10  0.2440E+01
     -4.731  0.3828E-04  0.2440E+01
     -4.514  0.1537E-01  0.2443E+01
     -4.298  0.6664E-01  0.2458E+01
     -4.081  0.1038E-01  0.2460E+01
     -3.865  0.3229E-01  0.2467E+01
     -3.649  0.1175E+00  0.2492E+01
     -3.432  0.1174E+00  0.2518E+01
     -3.216  0.1734E+00  0.2555E+01
     -2.999  0.2320E+00  0.2606E+01
     -2.783  0.2111E+00  0.2651E+01
     -2.566  0.1372E+00  0.2681E+01
     -2.350  0.1909E+00  0.2722E+01
     -2.133  0.1599E+00  0.2757E+01
     -1.917  0.1341E+00  0.2786E+01
     -1.700  0.1010E+00  0.2808E+01
     -1.484  0.5115E-01  0.2819E+01
     -1.267  0.5133E-02  0.2820E+01
     -1.051  0.1367E-04  0.2820E+01
     -0.835  0.1144E-10  0.2820E+01
     -0.618  0.0000E+00  0.2820E+01
     -0.402  0.0000E+00  0.2820E+01
     -0.185  0.0000E+00  0.2820E+01
      0.031  0.3101E-10  0.2820E+01
      0.248  0.2153E-04  0.2820E+01
      0.464  0.4130E-02  0.2821E+01
      0.681  0.1149E-01  0.2823E+01
      0.897  0.5324E-01  0.2835E+01
      1.114  0.8857E-01  0.2854E+01
      1.330  0.1141E+00  0.2879E+01
      1.547  0.1669E+00  0.2915E+01
      1.763  0.1885E+00  0.2956E+01
      1.979  0.2656E+00  0.3013E+01
      2.196  0.2602E+00  0.3070E+01
      2.412  0.2693E+00  0.3128E+01
      2.629  0.3057E+00  0.3194E+01
      2.845  0.3284E+00  0.3265E+01
      3.062  0.3812E+00  0.3348E+01
      3.278  0.4928E+00  0.3454E+01
      3.495  0.5663E+00  0.3577E+01
      3.711  0.5912E+00  0.3705E+01
      3.928  0.6426E+00  0.3844E+01
      4.144  0.5986E+00  0.3973E+01
      4.361  0.5650E+00  0.4096E+01
      4.577  0.5326E+00  0.4211E+01
      4.793  0.4667E+00  0.4312E+01
      5.010  0.4546E+00  0.4410E+01
      5.226  0.3623E+00  0.4489E+01
      5.443  0.2986E+00  0.4554E+01
      5.659  0.2774E+00  0.4614E+01
      5.876  0.2493E+00  0.4668E+01
      6.092  0.1532E+00  0.4701E+01
      6.309  0.1406E+00  0.4731E+01
      6.525  0.1015E+00  0.4753E+01
      6.742  0.1279E+00  0.4781E+01
      6.958  0.1759E+00  0.4819E+01
      7.174  0.1782E+00  0.4857E+01
      7.391  0.2280E+00  0.4907E+01
      7.607  0.2079E+00  0.4952E+01
      7.824  0.2184E+00  0.4999E+01
      8.040  0.2521E+00  0.5054E+01
      8.257  0.3076E+00  0.5120E+01
      8.473  0.2380E+00  0.5172E+01
      8.690  0.2509E+00  0.5226E+01
      8.906  0.3030E+00  0.5292E+01
      9.123  0.3692E+00  0.5372E+01
      9.339  0.3815E+00  0.5454E+01
      9.556  0.4058E+00  0.5542E+01
      9.772  0.4339E+00  0.5636E+01
      9.988  0.4442E+00  0.5732E+01
     10.205  0.4359E+00  0.5826E+01
     10.421  0.4263E+00  0.5919E+01
     10.638  0.3925E+00  0.6004E+01
     10.854  0.3760E+00  0.6085E+01
     11.071  0.3565E+00  0.6162E+01
     11.287  0.2973E+00  0.6227E+01
     11.504  0.6156E-01  0.6240E+01
     11.720  0.4611E-03  0.6240E+01
     11.937  0.2977E-08  0.6240E+01
     12.153  0.2280E-17  0.6240E+01
     12.370  0.0000E+00  0.6240E+01
     12.586  0.0000E+00  0.6240E+01
     12.802  0.0000E+00  0.6240E+01
     13.019  0.0000E+00  0.6240E+01
     13.235  0.0000E+00  0.6240E+01
     13.452  0.0000E+00  0.6240E+01
     13.668  0.0000E+00  0.6240E+01
     13.885  0.0000E+00  0.6240E+01
     14.101  0.0000E+00  0.6240E+01
     14.318  0.0000E+00  0.6240E+01
