       N       E                     dE             d eps       ncg     rms          rms(c)
DAV:   1     0.626687953762E+04    0.62669E+04   -0.21661E+05  8760   0.154E+03
DAV:   2     0.326552923774E+03   -0.59403E+04   -0.57129E+04  9048   0.636E+02
DAV:   3    -0.667014560148E+03   -0.99357E+03   -0.93554E+03 13728   0.218E+02
DAV:   4    -0.773865082784E+03   -0.10685E+03   -0.10367E+03 15504   0.874E+01
DAV:   5    -0.787746351583E+03   -0.13881E+02   -0.13635E+02 17304   0.270E+01    0.749E+01
RMM:   6    -0.982008713587E+03   -0.19426E+03   -0.26154E+03 11789   0.142E+02    0.128E+02
RMM:   7    -0.647988150092E+03    0.33402E+03   -0.26579E+02 13628   0.389E+01    0.339E+01
RMM:   8    -0.657624249338E+03   -0.96361E+01   -0.62027E+01 14413   0.174E+01    0.365E+01
RMM:   9    -0.653467926929E+03    0.41563E+01   -0.20994E+01 13815   0.116E+01    0.259E+01
RMM:  10    -0.649131575656E+03    0.43364E+01   -0.12594E+01 13946   0.754E+00    0.123E+01
RMM:  11    -0.651445362533E+03   -0.23138E+01   -0.48145E+00 12537   0.608E+00    0.265E+01
RMM:  12    -0.648262778552E+03    0.31826E+01   -0.49522E+00 13660   0.559E+00    0.957E+00
RMM:  13    -0.648992100555E+03   -0.72932E+00   -0.24530E+00 13662   0.407E+00    0.151E+01
RMM:  14    -0.648386034597E+03    0.60607E+00   -0.27047E+00 13920   0.351E+00    0.644E+00
RMM:  15    -0.648559899788E+03   -0.17387E+00   -0.89429E-01 13499   0.240E+00    0.962E+00
RMM:  16    -0.648054810238E+03    0.50509E+00   -0.12439E+00 13673   0.224E+00    0.499E+00
RMM:  17    -0.648027676959E+03    0.27133E-01   -0.58414E-01 12820   0.204E+00    0.258E+00
RMM:  18    -0.648082458323E+03   -0.54781E-01   -0.72866E-01 14598   0.132E+00    0.153E+00
RMM:  19    -0.648055039178E+03    0.27419E-01   -0.17854E-01 11649   0.125E+00    0.140E+00
RMM:  20    -0.648030003122E+03    0.25036E-01   -0.21787E-01 14350   0.817E-01    0.366E-01
RMM:  21    -0.648034579720E+03   -0.45766E-02   -0.64607E-02 11691   0.798E-01    0.163E-01
RMM:  22    -0.648036206456E+03   -0.16267E-02   -0.27021E-02 14101   0.276E-01    0.130E-01
RMM:  23    -0.648037925351E+03   -0.17189E-02   -0.21067E-02 13492   0.233E-01    0.660E-02
RMM:  24    -0.648038848141E+03   -0.92279E-03   -0.11929E-02 13245   0.124E-01    0.608E-02
RMM:  25    -0.648039177429E+03   -0.32929E-03   -0.52799E-03 12365   0.120E-01    0.207E-02
RMM:  26    -0.648039475021E+03   -0.29759E-03   -0.34514E-03 11808   0.801E-02    0.195E-02
RMM:  27    -0.648039663259E+03   -0.18824E-03   -0.22643E-03 11357   0.686E-02    0.182E-02
RMM:  28    -0.648039779410E+03   -0.11615E-03   -0.13785E-03 11177   0.480E-02    0.910E-03
RMM:  29    -0.648039840207E+03   -0.60797E-04   -0.72538E-04 11009   0.432E-02    0.419E-03
RMM:  30    -0.648039888608E+03   -0.48402E-04   -0.54146E-04 10672   0.317E-02    0.965E-03
RMM:  31    -0.648039913526E+03   -0.24918E-04   -0.29840E-04 10392   0.293E-02    0.166E-03
RMM:  32    -0.648039931756E+03   -0.18230E-04   -0.21051E-04  9744   0.222E-02    0.515E-03
RMM:  33    -0.648039943504E+03   -0.11748E-04   -0.12894E-04  9201   0.200E-02    0.233E-03
RMM:  34    -0.648039949635E+03   -0.61306E-05   -0.85084E-05  8437   0.172E-02
   1 F= -.64803995E+03 E0= -.64795994E+03  d E =-.648040E+03
       N       E                     dE             d eps       ncg     rms          rms(c)
DAV:   1    -0.642806491591E+03    0.52335E+01   -0.67198E+02  9696   0.970E+01    0.933E+00
RMM:   2    -0.657130329407E+03   -0.14324E+02   -0.97728E+01 13935   0.293E+01    0.314E+01
RMM:   3    -0.650949114056E+03    0.61812E+01   -0.95494E+00 10488   0.130E+01    0.148E+01
RMM:   4    -0.651324981249E+03   -0.37587E+00   -0.43986E+00 13769   0.484E+00    0.141E+01
RMM:   5    -0.650399189668E+03    0.92579E+00   -0.95737E-01 12449   0.333E+00    0.765E+00
RMM:   6    -0.650176005320E+03    0.22318E+00   -0.56503E-01 13862   0.192E+00    0.442E+00
RMM:   7    -0.650159097552E+03    0.16908E-01   -0.66196E-01 13867   0.179E+00    0.584E+00
RMM:   8    -0.650093782256E+03    0.65315E-01   -0.21785E-01 13172   0.142E+00    0.423E+00
RMM:   9    -0.650061210924E+03    0.32571E-01   -0.17266E-01 14442   0.921E-01    0.280E+00
RMM:  10    -0.650030285869E+03    0.30925E-01   -0.64693E-02 13900   0.704E-01    0.859E-01
RMM:  11    -0.650037453028E+03   -0.71672E-02   -0.48565E-02 14697   0.364E-01    0.133E+00
RMM:  12    -0.650031735088E+03    0.57179E-02   -0.17472E-02 14611   0.335E-01    0.431E-01
RMM:  13    -0.650033437536E+03   -0.17024E-02   -0.16598E-02 14546   0.182E-01    0.239E-01
RMM:  14    -0.650034171317E+03   -0.73378E-03   -0.54276E-03 14109   0.203E-01    0.115E-01
RMM:  15    -0.650035006922E+03   -0.83560E-03   -0.73926E-03 14332   0.124E-01    0.593E-02
RMM:  16    -0.650035123301E+03   -0.11638E-03   -0.22900E-03 12971   0.124E-01    0.365E-02
RMM:  17    -0.650035369724E+03   -0.24642E-03   -0.27280E-03 12379   0.696E-02    0.264E-02
RMM:  18    -0.650035415310E+03   -0.45586E-04   -0.86972E-04 12284   0.654E-02    0.144E-02
RMM:  19    -0.650035490400E+03   -0.75090E-04   -0.81975E-04 11500   0.417E-02    0.898E-03
RMM:  20    -0.650035514645E+03   -0.24246E-04   -0.33605E-04 11653   0.385E-02    0.479E-03
RMM:  21    -0.650035536806E+03   -0.22160E-04   -0.26131E-04 10826   0.273E-02    0.698E-03
RMM:  22    -0.650035548473E+03   -0.11668E-04   -0.13863E-04 10575   0.242E-02    0.316E-03
RMM:  23    -0.650035556070E+03   -0.75966E-05   -0.91898E-05  9496   0.186E-02
   2 F= -.65003556E+03 E0= -.64996237E+03  d E =-.199561E+01
       N       E                     dE             d eps       ncg     rms          rms(c)
DAV:   1    -0.650029284073E+03    0.62644E-02   -0.70277E-01 10392   0.316E+00    0.326E-01
RMM:   2    -0.650047941135E+03   -0.18657E-01   -0.10718E-01 13994   0.979E-01    0.130E+00
RMM:   3    -0.650038141648E+03    0.97995E-02   -0.12401E-02 10500   0.465E-01    0.387E-01
RMM:   4    -0.650038766085E+03   -0.62444E-03   -0.46570E-03 13094   0.185E-01    0.490E-01
RMM:   5    -0.650037855806E+03    0.91028E-03   -0.11609E-03 12023   0.114E-01    0.314E-01
RMM:   6    -0.650037554105E+03    0.30170E-03   -0.67519E-04 11382   0.617E-02    0.147E-01
RMM:   7    -0.650037619524E+03   -0.65419E-04   -0.73533E-04 13214   0.631E-02    0.234E-01
RMM:   8    -0.650037458793E+03    0.16073E-03   -0.25395E-04 10104   0.562E-02    0.114E-01
RMM:   9    -0.650037475460E+03   -0.16666E-04   -0.20570E-04 10669   0.343E-02    0.121E-01
RMM:  10    -0.650037416001E+03    0.59459E-04   -0.76471E-05  7434   0.277E-02    0.257E-02
RMM:  11    -0.650037430702E+03   -0.14701E-04   -0.49548E-05  6423   0.201E-02    0.567E-02
RMM:  12    -0.650037420061E+03    0.10640E-04   -0.26578E-05  5789   0.197E-02    0.144E-02
RMM:  13    -0.650037425660E+03   -0.55986E-05   -0.33160E-05  5913   0.142E-02
   3 F= -.65003743E+03 E0= -.64996449E+03  d E =-.199748E+01
       N       E                     dE             d eps       ncg     rms          rms(c)
DAV:   1    -0.648480199106E+03    0.15572E+01   -0.18907E+02 11784   0.677E+01    0.102E+01
RMM:   2    -0.665816407382E+03   -0.17336E+02   -0.37363E+01 13458   0.180E+01    0.382E+01
RMM:   3    -0.650648277108E+03    0.15168E+02   -0.72406E+00 10833   0.108E+01    0.590E+00
RMM:   4    -0.651188776096E+03   -0.54050E+00   -0.24618E+00 13697   0.385E+00    0.115E+01
RMM:   5    -0.650533623180E+03    0.65515E+00   -0.48828E-01 11933   0.243E+00    0.326E+00
RMM:   6    -0.650578087551E+03   -0.44464E-01   -0.28875E-01 13783   0.125E+00    0.464E+00
RMM:   7    -0.650461942060E+03    0.11615E+00   -0.16636E-01 13628   0.107E+00    0.168E+00
RMM:   8    -0.650518858458E+03   -0.56916E-01   -0.84693E-02 13168   0.847E-01    0.418E+00
RMM:   9    -0.650451636466E+03    0.67222E-01   -0.58068E-02 13969   0.660E-01    0.617E-01
RMM:  10    -0.650460114681E+03   -0.84782E-02   -0.34163E-02 14009   0.405E-01    0.136E+00
RMM:  11    -0.650452891386E+03    0.72233E-02   -0.16380E-02 14520   0.281E-01    0.211E-01
RMM:  12    -0.650454090246E+03   -0.11989E-02   -0.11005E-02 14416   0.161E-01    0.285E-01
RMM:  13    -0.650454125218E+03   -0.34972E-04   -0.33205E-03 12877   0.161E-01    0.199E-01
RMM:  14    -0.650454523037E+03   -0.39782E-03   -0.41542E-03 13512   0.998E-02    0.107E-01
RMM:  15    -0.650454721543E+03   -0.19851E-03   -0.20989E-03 13743   0.937E-02    0.516E-02
RMM:  16    -0.650454786099E+03   -0.64556E-04   -0.11279E-03 12816   0.788E-02    0.234E-02
RMM:  17    -0.650454866924E+03   -0.80825E-04   -0.94871E-04 11835   0.505E-02    0.210E-02
RMM:  18    -0.650454899104E+03   -0.32180E-04   -0.46913E-04 11887   0.463E-02    0.119E-02
RMM:  19    -0.650454925356E+03   -0.26252E-04   -0.34008E-04 10932   0.318E-02    0.720E-03
RMM:  20    -0.650454940459E+03   -0.15102E-04   -0.20795E-04 10987   0.271E-02    0.409E-03
RMM:  21    -0.650454950107E+03   -0.96480E-05   -0.12635E-04  9990   0.220E-02    0.336E-03
RMM:  22    -0.650454956167E+03   -0.60602E-05   -0.80609E-05  9347   0.189E-02
   4 F= -.65045496E+03 E0= -.65038567E+03  d E =-.417531E+00
       N       E                     dE             d eps       ncg     rms          rms(c)
DAV:   1    -0.650449955083E+03    0.49950E-02   -0.52379E-01 11544   0.364E+00    0.527E-01
RMM:   2    -0.650504924929E+03   -0.54970E-01   -0.12368E-01 12381   0.112E+00    0.282E+00
RMM:   3    -0.650462527952E+03    0.42397E-01   -0.24761E-02 10979   0.580E-01    0.121E+00
RMM:   4    -0.650457210594E+03    0.53174E-02   -0.70735E-03 12307   0.261E-01    0.358E-01
RMM:   5    -0.650457801872E+03   -0.59128E-03   -0.24637E-03 12828   0.127E-01    0.570E-01
RMM:   6    -0.650456336146E+03    0.14657E-02   -0.77956E-04 10334   0.940E-02    0.122E-01
RMM:   7    -0.650456698377E+03   -0.36223E-03   -0.80480E-04 13116   0.699E-02    0.352E-01
RMM:   8    -0.650456215974E+03    0.48240E-03   -0.33150E-04 10555   0.641E-02    0.814E-02
RMM:   9    -0.650456287373E+03   -0.71399E-04   -0.27871E-04 11412   0.409E-02    0.140E-01
RMM:  10    -0.650456195720E+03    0.91653E-04   -0.10179E-04  8796   0.334E-02    0.182E-02
RMM:  11    -0.650456198052E+03   -0.23319E-05   -0.86423E-05  7665   0.176E-02
   5 F= -.65045620E+03 E0= -.65038708E+03  d E =-.418772E+00
       N       E                     dE             d eps       ncg     rms          rms(c)
DAV:   1    -0.647553522124E+03    0.29027E+01   -0.19294E+02 11568   0.790E+01    0.868E+00
RMM:   2    -0.661692435792E+03   -0.14139E+02   -0.54904E+01 12464   0.220E+01    0.353E+01
RMM:   3    -0.650842265261E+03    0.10850E+02   -0.74211E+00 11221   0.102E+01    0.660E+00
RMM:   4    -0.651151834092E+03   -0.30957E+00   -0.23911E+00 13870   0.338E+00    0.887E+00
RMM:   5    -0.650792034354E+03    0.35980E+00   -0.40961E-01 11907   0.222E+00    0.449E+00
RMM:   6    -0.650732502228E+03    0.59532E-01   -0.22604E-01 13864   0.111E+00    0.306E+00
RMM:   7    -0.650688173925E+03    0.44328E-01   -0.26331E-01 12283   0.139E+00    0.263E+00
RMM:   8    -0.650678275769E+03    0.98982E-02   -0.99203E-02 12721   0.964E-01    0.216E+00
RMM:   9    -0.650656054108E+03    0.22222E-01   -0.55338E-02 14642   0.529E-01    0.372E-01
RMM:  10    -0.650658021028E+03   -0.19669E-02   -0.20823E-02 14444   0.292E-01    0.622E-01
RMM:  11    -0.650657047765E+03    0.97326E-03   -0.80659E-03 14426   0.235E-01    0.298E-01
RMM:  12    -0.650657955055E+03   -0.90729E-03   -0.84613E-03 14460   0.140E-01    0.188E-01
RMM:  13    -0.650658742297E+03   -0.78724E-03   -0.24576E-03 12550   0.150E-01    0.404E-01
RMM:  14    -0.650658622908E+03    0.11939E-03   -0.30496E-03 13517   0.101E-01    0.105E-01
RMM:  15    -0.650658890505E+03   -0.26760E-03   -0.18204E-03 13587   0.752E-02    0.515E-02
RMM:  16    -0.650658946019E+03   -0.55514E-04   -0.82822E-04 12819   0.719E-02    0.206E-02
RMM:  17    -0.650659008729E+03   -0.62710E-04   -0.74076E-04 11810   0.471E-02    0.190E-02
RMM:  18    -0.650659035070E+03   -0.26340E-04   -0.35694E-04 11559   0.417E-02    0.139E-02
RMM:  19    -0.650659060133E+03   -0.25063E-04   -0.26378E-04 10842   0.284E-02    0.488E-03
RMM:  20    -0.650659071262E+03   -0.11130E-04   -0.13668E-04 10657   0.254E-02    0.333E-03
RMM:  21    -0.650659079006E+03   -0.77436E-05   -0.93515E-05  9538   0.201E-02
   6 F= -.65065908E+03 E0= -.65059590E+03  d E =-.202881E+00
       N       E                     dE             d eps       ncg     rms          rms(c)
DAV:   1    -0.650545497959E+03    0.11357E+00   -0.81407E+00 11880   0.163E+01    0.187E+00
RMM:   2    -0.651245759212E+03   -0.70026E+00   -0.20499E+00 13028   0.403E+00    0.937E+00
RMM:   3    -0.650740308310E+03    0.50545E+00   -0.31818E-01 10876   0.223E+00    0.375E+00
RMM:   4    -0.650688229375E+03    0.52079E-01   -0.10605E-01 13129   0.914E-01    0.132E+00
RMM:   5    -0.650679881671E+03    0.83477E-02   -0.29038E-02 13447   0.426E-01    0.846E-01
RMM:   6    -0.650678284359E+03    0.15973E-02   -0.74931E-03 12859   0.259E-01    0.709E-01
RMM:   7    -0.650677355132E+03    0.92923E-03   -0.95432E-03 12606   0.249E-01    0.758E-01
RMM:   8    -0.650675274279E+03    0.20809E-02   -0.28721E-03 11468   0.184E-01    0.330E-01
RMM:   9    -0.650675512476E+03   -0.23820E-03   -0.24154E-03 13845   0.111E-01    0.378E-01
RMM:  10    -0.650674881619E+03    0.63086E-03   -0.75089E-04 11129   0.857E-02    0.879E-02
RMM:  11    -0.650674887496E+03   -0.58764E-05   -0.62434E-04 12317   0.411E-02    0.458E-02
RMM:  12    -0.650674926139E+03   -0.38644E-04   -0.17633E-04 10219   0.427E-02    0.870E-02
RMM:  13    -0.650674904743E+03    0.21396E-04   -0.17665E-04 10658   0.270E-02    0.256E-02
RMM:  14    -0.650674909998E+03   -0.52546E-05   -0.11733E-04 10022   0.235E-02    0.157E-02
RMM:  15    -0.650674909138E+03    0.86017E-06   -0.57895E-05  8228   0.211E-02
   7 F= -.65067491E+03 E0= -.65061056E+03  d E =-.218711E+00
       N       E                     dE             d eps       ncg     rms          rms(c)
DAV:   1    -0.648525250462E+03    0.21497E+01   -0.11196E+02  9456   0.579E+01    0.337E+00
RMM:   2    -0.651674032381E+03   -0.31488E+01   -0.24982E+01 14131   0.117E+01    0.124E+01
RMM:   3    -0.651001329386E+03    0.67270E+00   -0.14479E+00 10602   0.514E+00    0.550E+00
RMM:   4    -0.651033937313E+03   -0.32608E-01   -0.61498E-01 12908   0.208E+00    0.513E+00
RMM:   5    -0.650887905572E+03    0.14603E+00   -0.15257E-01 12636   0.113E+00    0.185E+00
RMM:   6    -0.650881066066E+03    0.68395E-02   -0.95190E-02 14427   0.561E-01    0.135E+00
RMM:   7    -0.650866487557E+03    0.14579E-01   -0.60712E-02 13886   0.486E-01    0.942E-01
RMM:   8    -0.650877844900E+03   -0.11357E-01   -0.22310E-02 11869   0.474E-01    0.194E+00
RMM:   9    -0.650863522433E+03    0.14322E-01   -0.19424E-02 14015   0.344E-01    0.585E-01
RMM:  10    -0.650863161100E+03    0.36133E-03   -0.87243E-03 13682   0.198E-01    0.417E-01
RMM:  11    -0.650862520640E+03    0.64046E-03   -0.41343E-03 13892   0.124E-01    0.998E-02
RMM:  12    -0.650862864021E+03   -0.34338E-03   -0.23840E-03 13966   0.862E-02    0.205E-01
RMM:  13    -0.650862750133E+03    0.11389E-03   -0.84414E-04 12315   0.858E-02    0.880E-02
RMM:  14    -0.650862837129E+03   -0.86996E-04   -0.11634E-03 12322   0.445E-02    0.333E-02
RMM:  15    -0.650862842361E+03   -0.52325E-05   -0.29913E-04 12061   0.444E-02    0.165E-02
RMM:  16    -0.650862865496E+03   -0.23135E-04   -0.29045E-04 10866   0.279E-02    0.102E-02
RMM:  17    -0.650862871151E+03   -0.56550E-05   -0.11036E-04  9925   0.272E-02    0.529E-03
RMM:  18    -0.650862878667E+03   -0.75160E-05   -0.87360E-05  8968   0.186E-02
   8 F= -.65086288E+03 E0= -.65080101E+03  d E =-.187970E+00
       N       E                     dE             d eps       ncg     rms          rms(c)
DAV:   1    -0.650731428944E+03    0.13144E+00   -0.66485E+00  9600   0.143E+01    0.838E-01
RMM:   2    -0.650929135372E+03   -0.19771E+00   -0.15095E+00 14088   0.288E+00    0.339E+00
RMM:   3    -0.650883003138E+03    0.46132E-01   -0.95563E-02 10579   0.135E+00    0.168E+00
RMM:   4    -0.650879244138E+03    0.37590E-02   -0.40535E-02 12936   0.533E-01    0.108E+00
RMM:   5    -0.650874074129E+03    0.51700E-02   -0.10606E-02 12918   0.274E-01    0.723E-01
RMM:   6    -0.650872125838E+03    0.19483E-02   -0.49408E-03 12982   0.153E-01    0.320E-01
RMM:   7    -0.650873475431E+03   -0.13496E-02   -0.38928E-03 13211   0.143E-01    0.687E-01
RMM:   8    -0.650871157862E+03    0.23176E-02   -0.24161E-03 12393   0.142E-01    0.153E-01
RMM:   9    -0.650871383348E+03   -0.22549E-03   -0.18116E-03 13732   0.894E-02    0.255E-01
RMM:  10    -0.650871104559E+03    0.27879E-03   -0.57519E-04 10527   0.693E-02    0.534E-02
RMM:  11    -0.650871116810E+03   -0.12251E-04   -0.39823E-04 11470   0.330E-02    0.472E-02
RMM:  12    -0.650871120792E+03   -0.39825E-05   -0.10337E-04  8307   0.315E-02    0.465E-02
RMM:  13    -0.650871120261E+03    0.53072E-06   -0.13130E-04  8527   0.204E-02    0.135E-02
RMM:  14    -0.650871120044E+03    0.21773E-06   -0.43855E-05  6489   0.204E-02
   9 F= -.65087112E+03 E0= -.65080986E+03  d E =-.196211E+00
       N       E                     dE             d eps       ncg     rms          rms(c)
DAV:   1    -0.650155954019E+03    0.71517E+00   -0.47789E+01  9552   0.350E+01    0.198E+00
RMM:   2    -0.651044174453E+03   -0.88822E+00   -0.88558E+00 13991   0.751E+00    0.471E+00
RMM:   3    -0.651038787448E+03    0.53870E-02   -0.54406E-01 10233   0.342E+00    0.357E+00
RMM:   4    -0.651042768172E+03   -0.39807E-02   -0.21583E-01 13185   0.128E+00    0.340E+00
RMM:   5    -0.650994861195E+03    0.47907E-01   -0.57702E-02 12904   0.734E-01    0.153E+00
RMM:   6    -0.650991576553E+03    0.32846E-02   -0.41356E-02 13903   0.441E-01    0.120E+00
RMM:   7    -0.651001537679E+03   -0.99611E-02   -0.31794E-02 13004   0.479E-01    0.207E+00
RMM:   8    -0.650979522577E+03    0.22015E-01   -0.16328E-02 12442   0.392E-01    0.263E-01
RMM:   9    -0.650980521571E+03   -0.99899E-03   -0.10554E-02 14181   0.146E-01    0.397E-01
RMM:  10    -0.650979925092E+03    0.59648E-03   -0.25421E-03 11612   0.136E-01    0.146E-01
RMM:  11    -0.650979969127E+03   -0.44035E-04   -0.26711E-03 13167   0.671E-02    0.429E-02
RMM:  12    -0.650980051516E+03   -0.82389E-04   -0.58792E-04 10574   0.823E-02    0.113E-01
RMM:  13    -0.650980077741E+03   -0.26225E-04   -0.95095E-04 11365   0.384E-02    0.366E-02
RMM:  14    -0.650980077726E+03    0.14996E-07   -0.20542E-04 10445   0.307E-02    0.138E-02
RMM:  15    -0.650980088759E+03   -0.11033E-04   -0.14258E-04  9211   0.245E-02    0.748E-03
RMM:  16    -0.650980095546E+03   -0.67872E-05   -0.87996E-05  8136   0.204E-02
  10 F= -.65098010E+03 E0= -.65092106E+03  d E =-.108976E+00
       N       E                     dE             d eps       ncg     rms          rms(c)
DAV:   1    -0.650881579416E+03    0.98509E-01   -0.60488E+00  9408   0.125E+01    0.718E-01
RMM:   2    -0.651005784468E+03   -0.12421E+00   -0.11569E+00 13987   0.271E+00    0.220E+00
RMM:   3    -0.650994863983E+03    0.10920E-01   -0.74515E-02 10327   0.126E+00    0.111E+00
RMM:   4    -0.650997930989E+03   -0.30670E-02   -0.29721E-02 13122   0.474E-01    0.121E+00
RMM:   5    -0.650991541296E+03    0.63897E-02   -0.83668E-03 12660   0.278E-01    0.659E-01
RMM:   6    -0.650990278480E+03    0.12628E-02   -0.52612E-03 12670   0.161E-01    0.363E-01
RMM:   7    -0.650990894580E+03   -0.61610E-03   -0.51482E-03 13607   0.165E-01    0.604E-01
RMM:   8    -0.650989083863E+03    0.18107E-02   -0.15340E-03 11159   0.126E-01    0.936E-02
RMM:   9    -0.650989142135E+03   -0.58272E-04   -0.12313E-03 12036   0.525E-02    0.865E-02
RMM:  10    -0.650989138226E+03    0.39098E-05   -0.26525E-04  8327   0.552E-02    0.716E-02
RMM:  11    -0.650989129291E+03    0.89344E-05   -0.32366E-04 10486   0.263E-02    0.159E-02
RMM:  12    -0.650989142909E+03   -0.13618E-04   -0.81605E-05  8132   0.308E-02    0.473E-02
RMM:  13    -0.650989139541E+03    0.33684E-05   -0.92233E-05  7770   0.183E-02
  11 F= -.65098914E+03 E0= -.65093082E+03  d E =-.118019E+00
       N       E                     dE             d eps       ncg     rms          rms(c)
DAV:   1    -0.650222280941E+03    0.76686E+00   -0.42923E+01 10296   0.359E+01    0.253E+00
RMM:   2    -0.651844013418E+03   -0.16217E+01   -0.10075E+01 14001   0.776E+00    0.108E+01
RMM:   3    -0.651138283846E+03    0.70573E+00   -0.81940E-01 10391   0.394E+00    0.441E+00
RMM:   4    -0.651102056269E+03    0.36228E-01   -0.34133E-01 13149   0.149E+00    0.248E+00
RMM:   5    -0.651077160209E+03    0.24896E-01   -0.85931E-02 13784   0.668E-01    0.166E+00
RMM:   6    -0.651067759205E+03    0.94010E-02   -0.23804E-02 13534   0.397E-01    0.985E-01
RMM:   7    -0.651081067552E+03   -0.13308E-01   -0.26315E-02 12801   0.428E-01    0.212E+00
RMM:   8    -0.651059612078E+03    0.21455E-01   -0.17024E-02 12154   0.424E-01    0.367E-01
RMM:   9    -0.651062675935E+03   -0.30639E-02   -0.11877E-02 14293   0.239E-01    0.798E-01
RMM:  10    -0.651059526381E+03    0.31496E-02   -0.34674E-03 12883   0.175E-01    0.114E-01
RMM:  11    -0.651059708899E+03   -0.18252E-03   -0.31572E-03 13691   0.774E-02    0.932E-02
RMM:  12    -0.651059816461E+03   -0.10756E-03   -0.68092E-04 11904   0.780E-02    0.136E-01
RMM:  13    -0.651059825611E+03   -0.91507E-05   -0.77033E-04 12699   0.467E-02    0.384E-02
RMM:  14    -0.651059868537E+03   -0.42926E-04   -0.33443E-04 12047   0.365E-02    0.210E-02
RMM:  15    -0.651059890261E+03   -0.21723E-04   -0.16201E-04 10744   0.316E-02    0.105E-02
RMM:  16    -0.651059904227E+03   -0.13966E-04   -0.14298E-04  9425   0.229E-02    0.548E-03
RMM:  17    -0.651059909507E+03   -0.52799E-05   -0.70889E-05  8455   0.191E-02
  12 F= -.65105991E+03 E0= -.65100394E+03  d E =-.707700E-01
       N       E                     dE             d eps       ncg     rms          rms(c)
DAV:   1    -0.650966917686E+03    0.92987E-01   -0.44240E+00 10056   0.117E+01    0.810E-01
RMM:   2    -0.651132983532E+03   -0.16607E+00   -0.11267E+00 14119   0.249E+00    0.322E+00
RMM:   3    -0.651073389567E+03    0.59594E-01   -0.77753E-02 10496   0.121E+00    0.142E+00
RMM:   4    -0.651070077754E+03    0.33118E-02   -0.32137E-02 13056   0.457E-01    0.887E-01
RMM:   5    -0.651066813186E+03    0.32646E-02   -0.83061E-03 13385   0.218E-01    0.579E-01
RMM:   6    -0.651065661947E+03    0.11512E-02   -0.29023E-03 12326   0.129E-01    0.309E-01
RMM:   7    -0.651066954993E+03   -0.12930E-02   -0.29936E-03 12632   0.146E-01    0.654E-01
RMM:   8    -0.651064805384E+03    0.21496E-02   -0.18309E-03 12059   0.137E-01    0.107E-01
RMM:   9    -0.651065101768E+03   -0.29638E-03   -0.12976E-03 13127   0.791E-02    0.233E-01
RMM:  10    -0.651064842716E+03    0.25905E-03   -0.41929E-04 10720   0.580E-02    0.390E-02
RMM:  11    -0.651064863614E+03   -0.20898E-04   -0.32924E-04 11131   0.280E-02    0.239E-02
RMM:  12    -0.651064887220E+03   -0.23605E-04   -0.82791E-05  7822   0.288E-02    0.541E-02
RMM:  13    -0.651064882282E+03    0.49379E-05   -0.69079E-05  7202   0.216E-02
  13 F= -.65106488E+03 E0= -.65100960E+03  d E =-.757427E-01
       N       E                     dE             d eps       ncg     rms          rms(c)
DAV:   1    -0.650410046016E+03    0.65484E+00   -0.37511E+01 12024   0.355E+01    0.333E+00
RMM:   2    -0.652268207828E+03   -0.18582E+01   -0.94716E+00 13324   0.760E+00    0.122E+01
RMM:   3    -0.651137125927E+03    0.11311E+01   -0.95889E-01 10743   0.422E+00    0.237E+00
RMM:   4    -0.651224922828E+03   -0.87797E-01   -0.36759E-01 13479   0.144E+00    0.466E+00
RMM:   5    -0.651121676928E+03    0.10325E+00   -0.70896E-02 12086   0.870E-01    0.136E+00
RMM:   6    -0.651124378801E+03   -0.27019E-02   -0.45159E-02 13739   0.449E-01    0.158E+00
RMM:   7    -0.651116203397E+03    0.81754E-02   -0.24739E-02 12334   0.427E-01    0.121E+00
RMM:   8    -0.651112204572E+03    0.39988E-02   -0.11981E-02 11910   0.339E-01    0.796E-01
RMM:   9    -0.651112073443E+03    0.13113E-03   -0.10296E-02 14140   0.233E-01    0.707E-01
RMM:  10    -0.651109738503E+03    0.23349E-02   -0.39272E-03 12436   0.176E-01    0.145E-01
RMM:  11    -0.651109919171E+03   -0.18067E-03   -0.30449E-03 13667   0.722E-02    0.100E-01
RMM:  12    -0.651110014557E+03   -0.95386E-04   -0.67614E-04 11907   0.768E-02    0.139E-01
RMM:  13    -0.651110007761E+03    0.67956E-05   -0.71303E-04 12815   0.479E-02    0.528E-02
RMM:  14    -0.651110050213E+03   -0.42452E-04   -0.38941E-04 12320   0.409E-02    0.261E-02
RMM:  15    -0.651110060751E+03   -0.10538E-04   -0.22109E-04 11944   0.376E-02    0.845E-03
RMM:  16    -0.651110076567E+03   -0.15815E-04   -0.17648E-04 10415   0.268E-02    0.785E-03
RMM:  17    -0.651110084782E+03   -0.82154E-05   -0.10228E-04  9810   0.216E-02    0.616E-03
RMM:  18    -0.651110088708E+03   -0.39260E-05   -0.57710E-05  8236   0.192E-02
  14 F= -.65111009E+03 E0= -.65105588E+03  d E =-.452064E-01
       N       E                     dE             d eps       ncg     rms          rms(c)
DAV:   1    -0.651099393566E+03    0.10691E-01   -0.55982E-01 12000   0.444E+00    0.414E-01
RMM:   2    -0.651129591715E+03   -0.30198E-01   -0.15537E-01 12951   0.980E-01    0.156E+00
RMM:   3    -0.651111480058E+03    0.18112E-01   -0.15928E-02 10683   0.508E-01    0.410E-01
RMM:   4    -0.651112086577E+03   -0.60652E-03   -0.58097E-03 13021   0.174E-01    0.488E-01
RMM:   5    -0.651111022157E+03    0.10644E-02   -0.10643E-03 11303   0.105E-01    0.202E-01
RMM:   6    -0.651110929662E+03    0.92494E-04   -0.56665E-04 10326   0.621E-02    0.157E-01
RMM:   7    -0.651110948603E+03   -0.18940E-04   -0.50467E-04 12097   0.571E-02    0.197E-01
RMM:   8    -0.651110785897E+03    0.16271E-03   -0.19602E-04  8954   0.540E-02    0.746E-02
RMM:   9    -0.651110795616E+03   -0.97193E-05   -0.19008E-04 11056   0.312E-02    0.782E-02
RMM:  10    -0.651110766398E+03    0.29218E-04   -0.52921E-05  6504   0.258E-02    0.177E-02
RMM:  11    -0.651110766107E+03    0.29068E-06   -0.39304E-05  6072   0.175E-02
  15 F= -.65111077E+03 E0= -.65105669E+03  d E =-.458838E-01
       N       E                     dE             d eps       ncg     rms          rms(c)
DAV:   1    -0.650475773354E+03    0.63499E+00   -0.29327E+01 10416   0.317E+01    0.182E+00
RMM:   2    -0.651629745458E+03   -0.11540E+01   -0.78046E+00 13718   0.637E+00    0.932E+00
RMM:   3    -0.651173221027E+03    0.45652E+00   -0.48831E-01 10304   0.282E+00    0.231E+00
RMM:   4    -0.651178901424E+03   -0.56804E-02   -0.21754E-01 12781   0.109E+00    0.192E+00
RMM:   5    -0.651156101940E+03    0.22799E-01   -0.37042E-02 12033   0.555E-01    0.832E-01
RMM:   6    -0.651156329273E+03   -0.22733E-03   -0.21941E-02 13904   0.260E-01    0.791E-01
RMM:   7    -0.651158439042E+03   -0.21098E-02   -0.13925E-02 11985   0.335E-01    0.116E+00
RMM:   8    -0.651152018384E+03    0.64207E-02   -0.67243E-03 12448   0.232E-01    0.269E-01
RMM:   9    -0.651152841980E+03   -0.82360E-03   -0.44616E-03 13910   0.129E-01    0.421E-01
RMM:  10    -0.651152008488E+03    0.83349E-03   -0.16139E-03 11854   0.911E-02    0.776E-02
RMM:  11    -0.651152068560E+03   -0.60073E-04   -0.10935E-03 12596   0.513E-02    0.640E-02
RMM:  12    -0.651152118759E+03   -0.50198E-04   -0.28176E-04 10577   0.499E-02    0.965E-02
RMM:  13    -0.651152109339E+03    0.94193E-05   -0.32559E-04 11085   0.302E-02    0.188E-02
RMM:  14    -0.651152121640E+03   -0.12300E-04   -0.11508E-04  9123   0.237E-02    0.113E-02
RMM:  15    -0.651152128187E+03   -0.65479E-05   -0.55075E-05  6965   0.213E-02
  16 F= -.65115213E+03 E0= -.65109960E+03  d E =-.413621E-01
       N       E                     dE             d eps       ncg     rms          rms(c)
DAV:   1    -0.651004606296E+03    0.14752E+00   -0.53469E+00  9696   0.140E+01    0.774E-01
RMM:   2    -0.651214068647E+03   -0.20946E+00   -0.16203E+00 13844   0.283E+00    0.340E+00
RMM:   3    -0.651161363272E+03    0.52705E-01   -0.10358E-01 10402   0.119E+00    0.103E+00
RMM:   4    -0.651163282020E+03   -0.19187E-02   -0.37446E-02 12552   0.469E-01    0.922E-01
RMM:   5    -0.651158199070E+03    0.50829E-02   -0.69826E-03 11710   0.261E-01    0.449E-01
RMM:   6    -0.651157959110E+03    0.23996E-03   -0.45597E-03 12269   0.125E-01    0.327E-01
RMM:   7    -0.651158873263E+03   -0.91415E-03   -0.28179E-03 12522   0.137E-01    0.578E-01
RMM:   8    -0.651157111174E+03    0.17621E-02   -0.14225E-03 11682   0.117E-01    0.842E-02
RMM:   9    -0.651157173592E+03   -0.62417E-04   -0.97541E-04 12456   0.526E-02    0.826E-02
RMM:  10    -0.651157166363E+03    0.72288E-05   -0.24283E-04  9423   0.412E-02    0.555E-02
RMM:  11    -0.651157167406E+03   -0.10436E-05   -0.18449E-04  9664   0.257E-02    0.225E-02
RMM:  12    -0.651157185686E+03   -0.18280E-04   -0.68170E-05  6756   0.243E-02    0.530E-02
RMM:  13    -0.651157180016E+03    0.56701E-05   -0.59749E-05  6395   0.208E-02
  17 F= -.65115718E+03 E0= -.65110535E+03  d E =-.464139E-01
       N       E                     dE             d eps       ncg     rms          rms(c)
DAV:   1    -0.650881252630E+03    0.27593E+00   -0.12008E+01  9408   0.197E+01    0.101E+00
RMM:   2    -0.651241649339E+03   -0.36040E+00   -0.31506E+00 13950   0.404E+00    0.368E+00
RMM:   3    -0.651186615360E+03    0.55034E-01   -0.17494E-01 10419   0.162E+00    0.120E+00
RMM:   4    -0.651194845819E+03   -0.82305E-02   -0.66289E-02 12914   0.618E-01    0.137E+00
RMM:   5    -0.651183289808E+03    0.11556E-01   -0.12317E-02 11689   0.364E-01    0.522E-01
RMM:   6    -0.651183249915E+03    0.39893E-04   -0.98143E-03 12889   0.157E-01    0.436E-01
RMM:   7    -0.651184988032E+03   -0.17381E-02   -0.54599E-03 13221   0.171E-01    0.826E-01
RMM:   8    -0.651181702398E+03    0.32856E-02   -0.25599E-03 10969   0.165E-01    0.135E-01
RMM:   9    -0.651181909097E+03   -0.20670E-03   -0.19534E-03 13337   0.807E-02    0.198E-01
RMM:  10    -0.651181758340E+03    0.15076E-03   -0.57943E-04  9725   0.649E-02    0.709E-02
RMM:  11    -0.651181754036E+03    0.43042E-05   -0.38582E-04 10711   0.354E-02    0.565E-02
RMM:  12    -0.651181754852E+03   -0.81665E-06   -0.13250E-04  8896   0.287E-02    0.468E-02
RMM:  13    -0.651181753549E+03    0.13035E-05   -0.14510E-04  8844   0.225E-02    0.102E-02
RMM:  14    -0.651181756826E+03   -0.32771E-05   -0.59332E-05  6656   0.184E-02
  18 F= -.65118176E+03 E0= -.65113053E+03  d E =-.245768E-01
       N       E                     dE             d eps       ncg     rms          rms(c)
DAV:   1    -0.651112040794E+03    0.69713E-01   -0.29279E+00  9480   0.973E+00    0.494E-01
RMM:   2    -0.651198059457E+03   -0.86019E-01   -0.76675E-01 13884   0.200E+00    0.168E+00
RMM:   3    -0.651187084630E+03    0.10975E-01   -0.42824E-02 10395   0.800E-01    0.647E-01
RMM:   4    -0.651188712041E+03   -0.16274E-02   -0.16227E-02 12810   0.307E-01    0.663E-01
RMM:   5    -0.651185912348E+03    0.27997E-02   -0.30028E-03 10924   0.180E-01    0.230E-01
RMM:   6    -0.651186047435E+03   -0.13509E-03   -0.25028E-03 11356   0.815E-02    0.239E-01
RMM:   7    -0.651186243054E+03   -0.19562E-03   -0.14851E-03 13122   0.877E-02    0.359E-01
RMM:   8    -0.651185637627E+03    0.60543E-03   -0.53455E-04  9893   0.798E-02    0.733E-02
RMM:   9    -0.651185666557E+03   -0.28930E-04   -0.44805E-04 11322   0.390E-02    0.791E-02
RMM:  10    -0.651185646392E+03    0.20165E-04   -0.12499E-04  7712   0.333E-02    0.380E-02
RMM:  11    -0.651185641757E+03    0.46353E-05   -0.94426E-05  7728   0.195E-02
  19 F= -.65118564E+03 E0= -.65113472E+03  d E =-.284617E-01
       N       E                     dE             d eps       ncg     rms          rms(c)
DAV:   1    -0.651126872984E+03    0.58773E-01   -0.39641E+00  9744   0.101E+01    0.595E-01
RMM:   2    -0.651221431259E+03   -0.94558E-01   -0.76498E-01 14006   0.207E+00    0.201E+00
RMM:   3    -0.651200173572E+03    0.21258E-01   -0.46608E-02 10262   0.970E-01    0.915E-01
RMM:   4    -0.651200033162E+03    0.14041E-03   -0.20853E-02 13369   0.349E-01    0.710E-01
RMM:   5    -0.651196973774E+03    0.30594E-02   -0.43019E-03 12550   0.192E-01    0.269E-01
RMM:   6    -0.651197403456E+03   -0.42968E-03   -0.29744E-03 12044   0.110E-01    0.387E-01
RMM:   7    -0.651197070684E+03    0.33277E-03   -0.22008E-03 13288   0.114E-01    0.343E-01
RMM:   8    -0.651196531917E+03    0.53877E-03   -0.77211E-04 11116   0.924E-02    0.114E-01
RMM:   9    -0.651196507154E+03    0.24764E-04   -0.63500E-04 11825   0.457E-02    0.486E-02
RMM:  10    -0.651196527953E+03   -0.20799E-04   -0.17104E-04  9011   0.372E-02    0.680E-02
RMM:  11    -0.651196515091E+03    0.12862E-04   -0.13711E-04  9416   0.238E-02    0.188E-02
RMM:  12    -0.651196529657E+03   -0.14566E-04   -0.54968E-05  6600   0.227E-02    0.445E-02
RMM:  13    -0.651196524744E+03    0.49131E-05   -0.38436E-05  6075   0.188E-02
  20 F= -.65119652E+03 E0= -.65114600E+03  d E =-.108830E-01
       N       E                     dE             d eps       ncg     rms          rms(c)
DAV:   1    -0.651170099808E+03    0.26430E-01   -0.16518E+00  9888   0.649E+00    0.385E-01
RMM:   2    -0.651209690158E+03   -0.39590E-01   -0.32016E-01 13953   0.133E+00    0.131E+00
RMM:   3    -0.651200665273E+03    0.90249E-02   -0.18985E-02 10226   0.619E-01    0.585E-01
RMM:   4    -0.651200644208E+03    0.21065E-04   -0.86289E-03 13126   0.225E-01    0.461E-01
RMM:   5    -0.651199377717E+03    0.12665E-02   -0.18268E-03 11972   0.124E-01    0.184E-01
RMM:   6    -0.651199490874E+03   -0.11316E-03   -0.12387E-03 10897   0.730E-02    0.224E-01
RMM:   7    -0.651199459530E+03    0.31344E-04   -0.93060E-04 13026   0.739E-02    0.242E-01
RMM:   8    -0.651199184583E+03    0.27495E-03   -0.32811E-04  9867   0.649E-02    0.673E-02
RMM:   9    -0.651199181643E+03    0.29397E-05   -0.29070E-04 10702   0.300E-02    0.209E-02
RMM:  10    -0.651199197494E+03   -0.15851E-04   -0.68556E-05  6899   0.291E-02    0.537E-02
RMM:  11    -0.651199187850E+03    0.96436E-05   -0.52667E-05  6774   0.197E-02
  21 F= -.65119919E+03 E0= -.65114890E+03  d E =-.135461E-01
       N       E                     dE             d eps       ncg     rms          rms(c)
DAV:   1    -0.651150217687E+03    0.48980E-01   -0.45943E+00 11064   0.113E+01    0.130E+00
RMM:   2    -0.651409148448E+03   -0.25893E+00   -0.97928E-01 13236   0.268E+00    0.508E+00
RMM:   3    -0.651216216399E+03    0.19293E+00   -0.13973E-01 10805   0.153E+00    0.143E+00
RMM:   4    -0.651214255345E+03    0.19611E-02   -0.47397E-02 13887   0.505E-01    0.110E+00
RMM:   5    -0.651208776620E+03    0.54787E-02   -0.10527E-02 12000   0.319E-01    0.664E-01
RMM:   6    -0.651207189249E+03    0.15874E-02   -0.50155E-03 12600   0.198E-01    0.436E-01
RMM:   7    -0.651207232887E+03   -0.43638E-04   -0.50445E-03 12747   0.186E-01    0.537E-01
RMM:   8    -0.651205990596E+03    0.12423E-02   -0.16865E-03 11628   0.138E-01    0.179E-01
RMM:   9    -0.651206084775E+03   -0.94179E-04   -0.13863E-03 12876   0.723E-02    0.189E-01
RMM:  10    -0.651205923687E+03    0.16109E-03   -0.38935E-04 11031   0.568E-02    0.469E-02
RMM:  11    -0.651205941330E+03   -0.17644E-04   -0.27730E-04 11300   0.293E-02    0.500E-02
RMM:  12    -0.651205940380E+03    0.95082E-06   -0.93487E-05  8975   0.278E-02
  22 F= -.65120594E+03 E0= -.65115553E+03  d E =-.675253E-02
       N       E                     dE             d eps       ncg     rms          rms(c)
DAV:   1    -0.651205667765E+03    0.27357E-03   -0.27207E-02 11736   0.867E-01    0.104E-01
RMM:   2    -0.651207305036E+03   -0.16373E-02   -0.60184E-03 12451   0.209E-01    0.402E-01
RMM:   3    -0.651206064959E+03    0.12401E-02   -0.88004E-04  8849   0.124E-01    0.119E-01
RMM:   4    -0.651206043988E+03    0.20971E-04   -0.29489E-04 10064   0.426E-02    0.808E-02
RMM:   5    -0.651206018189E+03    0.25799E-04   -0.68404E-05  6782   0.276E-02    0.521E-02
RMM:   6    -0.651206008980E+03    0.92094E-05   -0.34119E-05  5859   0.241E-02
  23 F= -.65120601E+03 E0= -.65115560E+03  d E =-.682113E-02
       N       E                     dE             d eps       ncg     rms          rms(c)
DAV:   1    -0.651139386312E+03    0.66632E-01   -0.42699E+00  9744   0.107E+01    0.716E-01
RMM:   2    -0.651259295227E+03   -0.11991E+00   -0.83757E-01 14194   0.218E+00    0.253E+00
RMM:   3    -0.651216245155E+03    0.43050E-01   -0.60541E-02 10398   0.108E+00    0.936E-01
RMM:   4    -0.651216618549E+03   -0.37339E-03   -0.25753E-02 13654   0.371E-01    0.805E-01
RMM:   5    -0.651212970129E+03    0.36484E-02   -0.48762E-03 12752   0.204E-01    0.264E-01
RMM:   6    -0.651213363410E+03   -0.39328E-03   -0.29548E-03 12763   0.112E-01    0.390E-01
RMM:   7    -0.651212474983E+03    0.88843E-03   -0.24302E-03 12519   0.133E-01    0.206E-01
RMM:   8    -0.651212765708E+03   -0.29072E-03   -0.11312E-03 12261   0.946E-02    0.319E-01
RMM:   9    -0.651212344455E+03    0.42125E-03   -0.59222E-04 11968   0.674E-02    0.872E-02
RMM:  10    -0.651212352700E+03   -0.82445E-05   -0.37961E-04 10110   0.393E-02    0.643E-02
RMM:  11    -0.651212342409E+03    0.10291E-04   -0.15082E-04  9587   0.246E-02    0.178E-02
RMM:  12    -0.651212357406E+03   -0.14997E-04   -0.65618E-05  7561   0.219E-02    0.301E-02
RMM:  13    -0.651212359016E+03   -0.16096E-05   -0.45031E-05  6261   0.203E-02
  24 F= -.65121236E+03 E0= -.65116200E+03  d E =-.635004E-02
       N       E                     dE             d eps       ncg     rms          rms(c)
DAV:   1    -0.651203647405E+03    0.87100E-02   -0.55365E-01  9936   0.385E+00    0.257E-01
RMM:   2    -0.651218790392E+03   -0.15143E-01   -0.10831E-01 14013   0.779E-01    0.862E-01
RMM:   3    -0.651213482985E+03    0.53074E-02   -0.76487E-03 10344   0.383E-01    0.288E-01
RMM:   4    -0.651213769810E+03   -0.28683E-03   -0.33064E-03 12514   0.132E-01    0.321E-01
RMM:   5    -0.651213212669E+03    0.55714E-03   -0.62311E-04 11063   0.777E-02    0.915E-02
RMM:   6    -0.651213272925E+03   -0.60255E-04   -0.41044E-04  9689   0.456E-02    0.139E-01
RMM:   7    -0.651213151298E+03    0.12163E-03   -0.35044E-04 12213   0.467E-02    0.436E-02
RMM:   8    -0.651213205851E+03   -0.54553E-04   -0.14825E-04  8512   0.420E-02    0.104E-01
RMM:   9    -0.651213152517E+03    0.53333E-04   -0.66017E-05  7236   0.249E-02    0.168E-02
RMM:  10    -0.651213162141E+03   -0.96236E-05   -0.45166E-05  6334   0.201E-02
  25 F= -.65121316E+03 E0= -.65116282E+03  d E =-.715316E-02
       N       E                     dE             d eps       ncg     rms          rms(c)
DAV:   1    -0.651174402858E+03    0.38750E-01   -0.22157E+00  9744   0.771E+00    0.515E-01
RMM:   2    -0.651235344234E+03   -0.60941E-01   -0.43396E-01 14102   0.157E+00    0.174E+00
RMM:   3    -0.651213725177E+03    0.21619E-01   -0.31051E-02 10439   0.774E-01    0.583E-01
RMM:   4    -0.651214797500E+03   -0.10723E-02   -0.13335E-02 13413   0.264E-01    0.633E-01
RMM:   5    -0.651212601929E+03    0.21956E-02   -0.24418E-03 12351   0.150E-01    0.184E-01
RMM:   6    -0.651212844636E+03   -0.24271E-03   -0.16002E-03 11602   0.823E-02    0.283E-01
RMM:   7    -0.651212331323E+03    0.51331E-03   -0.12987E-03 13039   0.903E-02    0.942E-02
RMM:   8    -0.651212578032E+03   -0.24671E-03   -0.58850E-04 11784   0.714E-02    0.236E-01
RMM:   9    -0.651212331277E+03    0.24675E-03   -0.26660E-04 10463   0.487E-02    0.644E-02
RMM:  10    -0.651212337031E+03   -0.57539E-05   -0.20389E-04  9293   0.287E-02    0.442E-02
RMM:  11    -0.651212335181E+03    0.18503E-05   -0.73678E-05  7367   0.215E-02
  26 F= -.65121234E+03 E0= -.65116200E+03  d E =-.632620E-02
       N       E                     dE             d eps       ncg     rms          rms(c)
DAV:   1    -0.651190683236E+03    0.21654E-01   -0.13259E+00  9744   0.597E+00    0.394E-01
RMM:   2    -0.651226114021E+03   -0.35431E-01   -0.25648E-01 14213   0.120E+00    0.132E+00
RMM:   3    -0.651214195039E+03    0.11919E-01   -0.17716E-02 10350   0.592E-01    0.444E-01
RMM:   4    -0.651214880920E+03   -0.68588E-03   -0.76664E-03 13211   0.208E-01    0.499E-01
RMM:   5    -0.651213516987E+03    0.13639E-02   -0.14349E-03 11628   0.119E-01    0.163E-01
RMM:   6    -0.651213574960E+03   -0.57973E-04   -0.85558E-04 10984   0.657E-02    0.195E-01
RMM:   7    -0.651213386928E+03    0.18803E-03   -0.75600E-04 11949   0.660E-02    0.152E-01
RMM:   8    -0.651213342407E+03    0.44521E-04   -0.25031E-04  9065   0.568E-02    0.122E-01
RMM:   9    -0.651213322961E+03    0.19446E-04   -0.21165E-04 10453   0.354E-02    0.101E-01
RMM:  10    -0.651213273180E+03    0.49781E-04   -0.66577E-05  6028   0.282E-02    0.186E-02
RMM:  11    -0.651213270491E+03    0.26887E-05   -0.46805E-05  6115   0.171E-02
  27 F= -.65121327E+03 E0= -.65116293E+03  d E =-.726151E-02
       N       E                     dE             d eps       ncg     rms          rms(c)
DAV:   1    -0.651155205394E+03    0.58068E-01   -0.34062E+00  9408   0.958E+00    0.458E-01
RMM:   2    -0.651221332757E+03   -0.66127E-01   -0.64896E-01 13722   0.192E+00    0.946E-01
RMM:   3    -0.651220053052E+03    0.12797E-02   -0.37609E-02 10649   0.742E-01    0.754E-01
RMM:   4    -0.651220929528E+03   -0.87648E-03   -0.13487E-02 12808   0.280E-01    0.745E-01
RMM:   5    -0.651217933513E+03    0.29960E-02   -0.27856E-03 11158   0.173E-01    0.268E-01
RMM:   6    -0.651217853320E+03    0.80193E-04   -0.21029E-03 11061   0.900E-02    0.228E-01
RMM:   7    -0.651218094408E+03   -0.24109E-03   -0.17203E-03 12326   0.104E-01    0.391E-01
RMM:   8    -0.651217369057E+03    0.72535E-03   -0.67984E-04 10626   0.834E-02    0.818E-02
RMM:   9    -0.651217405490E+03   -0.36433E-04   -0.44229E-04 10626   0.405E-02    0.104E-01
RMM:  10    -0.651217358971E+03    0.46519E-04   -0.12802E-04  7901   0.315E-02    0.293E-02
RMM:  11    -0.651217358308E+03    0.66242E-06   -0.11729E-04  8086   0.193E-02    0.201E-02
RMM:  12    -0.651217362126E+03   -0.38175E-05   -0.29659E-05  5666   0.205E-02
  28 F= -.65121736E+03 E0= -.65116695E+03  d E =-.409163E-02
       N       E                     dE             d eps       ncg     rms          rms(c)
DAV:   1    -0.651202493908E+03    0.14864E-01   -0.85797E-01  9408   0.481E+00    0.228E-01
RMM:   2    -0.651219057269E+03   -0.16563E-01   -0.16324E-01 13719   0.961E-01    0.449E-01
RMM:   3    -0.651218814798E+03    0.24247E-03   -0.95440E-03 10550   0.374E-01    0.370E-01
RMM:   4    -0.651219065846E+03   -0.25105E-03   -0.34565E-03 12229   0.140E-01    0.379E-01
RMM:   5    -0.651218313126E+03    0.75272E-03   -0.74789E-04  9933   0.878E-02    0.134E-01
RMM:   6    -0.651218301214E+03    0.11912E-04   -0.57473E-04  9792   0.488E-02    0.116E-01
RMM:   7    -0.651218347202E+03   -0.45988E-04   -0.49437E-04 11706   0.547E-02    0.187E-01
RMM:   8    -0.651218184193E+03    0.16301E-03   -0.16271E-04  8653   0.473E-02    0.428E-02
RMM:   9    -0.651218196098E+03   -0.11905E-04   -0.12762E-04  8377   0.237E-02    0.552E-02
RMM:  10    -0.651218183393E+03    0.12705E-04   -0.42802E-05  6086   0.202E-02    0.150E-02
RMM:  11    -0.651218183046E+03    0.34672E-06   -0.37982E-05  5939   0.137E-02
  29 F= -.65121818E+03 E0= -.65116771E+03  d E =-.491255E-02
       N       E                     dE             d eps       ncg     rms          rms(c)
DAV:   1    -0.651186086175E+03    0.32097E-01   -0.17552E+00  9384   0.707E+00    0.288E-01
RMM:   2    -0.651222023967E+03   -0.35938E-01   -0.36208E-01 13430   0.143E+00    0.550E-01
RMM:   3    -0.651222589014E+03   -0.56505E-03   -0.22905E-02 11295   0.459E-01    0.520E-01
RMM:   4    -0.651221928487E+03    0.66053E-03   -0.60772E-03 12585   0.165E-01    0.261E-01
RMM:   5    -0.651221677561E+03    0.25093E-03   -0.10236E-03 10664   0.870E-02    0.124E-01
RMM:   6    -0.651221823719E+03   -0.14616E-03   -0.65814E-04 11089   0.617E-02    0.240E-01
RMM:   7    -0.651221551309E+03    0.27241E-03   -0.71475E-04 11382   0.687E-02    0.116E-01
RMM:   8    -0.651221499570E+03    0.51739E-04   -0.23246E-04  9004   0.463E-02    0.556E-02
RMM:   9    -0.651221480445E+03    0.19125E-04   -0.94841E-05  7020   0.230E-02    0.300E-02
RMM:  10    -0.651221483778E+03   -0.33327E-05   -0.44610E-05  6136   0.201E-02
  30 F= -.65122148E+03 E0= -.65117101E+03  d E =-.330073E-02
       N       E                     dE             d eps       ncg     rms          rms(c)
DAV:   1    -0.651206479618E+03    0.15001E-01   -0.82019E-01  9456   0.483E+00    0.195E-01
RMM:   2    -0.651222784864E+03   -0.16305E-01   -0.16553E-01 13392   0.965E-01    0.343E-01
RMM:   3    -0.651223167033E+03   -0.38217E-03   -0.10000E-02 11344   0.311E-01    0.381E-01
RMM:   4    -0.651222741562E+03    0.42547E-03   -0.29537E-03 11869   0.117E-01    0.149E-01
RMM:   5    -0.651222676728E+03    0.64834E-04   -0.51803E-04  9889   0.591E-02    0.940E-02
RMM:   6    -0.651222713482E+03   -0.36755E-04   -0.28842E-04  9910   0.422E-02    0.138E-01
RMM:   7    -0.651222618398E+03    0.95084E-04   -0.39265E-04 10938   0.482E-02    0.851E-02
RMM:   8    -0.651222593420E+03    0.24978E-04   -0.10620E-04  7468   0.346E-02    0.449E-02
RMM:   9    -0.651222582052E+03    0.11368E-04   -0.45667E-05  6332   0.190E-02    0.180E-02
RMM:  10    -0.651222584632E+03   -0.25797E-05   -0.24360E-05  5788   0.162E-02
  31 F= -.65122258E+03 E0= -.65117213E+03  d E =-.440159E-02
       N       E                     dE             d eps       ncg     rms          rms(c)
DAV:   1    -0.651158429900E+03    0.64152E-01   -0.32863E+00  9432   0.966E+00    0.390E-01
RMM:   2    -0.651223510217E+03   -0.65080E-01   -0.65712E-01 13398   0.192E+00    0.760E-01
RMM:   3    -0.651223875557E+03   -0.36534E-03   -0.38112E-02 11371   0.620E-01    0.693E-01
RMM:   4    -0.651222515123E+03    0.13604E-02   -0.11709E-02 12884   0.224E-01    0.276E-01
RMM:   5    -0.651222362782E+03    0.15234E-03   -0.17759E-03 11238   0.112E-01    0.187E-01
RMM:   6    -0.651222371181E+03   -0.83990E-05   -0.18272E-03 12487   0.926E-02    0.251E-01
RMM:   7    -0.651222000053E+03    0.37113E-03   -0.79514E-04 11112   0.864E-02    0.921E-02
RMM:   8    -0.651222067833E+03   -0.67780E-04   -0.37428E-04  9880   0.491E-02    0.127E-01
RMM:   9    -0.651221965300E+03    0.10253E-03   -0.15871E-04  8024   0.340E-02    0.276E-02
RMM:  10    -0.651221985241E+03   -0.19941E-04   -0.10471E-04  7757   0.228E-02    0.607E-02
RMM:  11    -0.651221969027E+03    0.16215E-04   -0.69026E-05  7612   0.205E-02    0.111E-02
RMM:  12    -0.651221975787E+03   -0.67601E-05   -0.44711E-05  6667   0.158E-02
  32 F= -.65122198E+03 E0= -.65117152E+03  d E =-.379274E-02
       N       E                     dE             d eps       ncg     rms          rms(c)
DAV:   1    -0.651191413415E+03    0.30556E-01   -0.16407E+00  9480   0.680E+00    0.272E-01
RMM:   2    -0.651222971962E+03   -0.31559E-01   -0.32465E-01 13402   0.135E+00    0.354E-01
RMM:   3    -0.651224504130E+03   -0.15322E-02   -0.18828E-02 11232   0.437E-01    0.618E-01
RMM:   4    -0.651223442970E+03    0.10612E-02   -0.58219E-03 11901   0.177E-01    0.298E-01
RMM:   5    -0.651223001459E+03    0.44151E-03   -0.11627E-03 10644   0.854E-02    0.121E-01
RMM:   6    -0.651223037398E+03   -0.35940E-04   -0.56044E-04 10257   0.524E-02    0.159E-01
RMM:   7    -0.651222919017E+03    0.11838E-03   -0.79250E-04 11298   0.625E-02    0.153E-01
RMM:   8    -0.651222830127E+03    0.88890E-04   -0.20482E-04  8875   0.494E-02    0.748E-02
RMM:   9    -0.651222807091E+03    0.23036E-04   -0.85959E-05  6673   0.239E-02    0.338E-02
RMM:  10    -0.651222806519E+03    0.57163E-06   -0.32789E-05  5831   0.206E-02
  33 F= -.65122281E+03 E0= -.65117237E+03  d E =-.462347E-02
       N       E                     dE             d eps       ncg     rms          rms(c)
DAV:   1    -0.651205464808E+03    0.17342E-01   -0.11275E+00  9072   0.536E+00    0.239E-01
RMM:   2    -0.651225791265E+03   -0.20326E-01   -0.20446E-01 13355   0.109E+00    0.474E-01
RMM:   3    -0.651225705418E+03    0.85847E-04   -0.11804E-02 11369   0.354E-01    0.427E-01
RMM:   4    -0.651225573216E+03    0.13220E-03   -0.38155E-03 11674   0.145E-01    0.316E-01
RMM:   5    -0.651225029656E+03    0.54356E-03   -0.70916E-04  9392   0.827E-02    0.122E-01
RMM:   6    -0.651225049148E+03   -0.19492E-04   -0.51571E-04  9930   0.494E-02    0.137E-01
RMM:   7    -0.651225077194E+03   -0.28046E-04   -0.45377E-04 10439   0.553E-02    0.194E-01
RMM:   8    -0.651224891042E+03    0.18615E-03   -0.18914E-04  8618   0.482E-02    0.412E-02
RMM:   9    -0.651224898824E+03   -0.77819E-05   -0.10201E-04  7348   0.241E-02    0.508E-02
RMM:  10    -0.651224886951E+03    0.11873E-04   -0.29113E-05  5716   0.210E-02    0.154E-02
RMM:  11    -0.651224886846E+03    0.10539E-06   -0.24464E-05  5752   0.131E-02
  34 F= -.65122489E+03 E0= -.65117442E+03  d E =-.208033E-02
       N       E                     dE             d eps       ncg     rms          rms(c)
DAV:   1    -0.651210242870E+03    0.14644E-01   -0.89823E-01  9048   0.479E+00    0.214E-01
RMM:   2    -0.651226603296E+03   -0.16360E-01   -0.16459E-01 13375   0.983E-01    0.419E-01
RMM:   3    -0.651226593277E+03    0.10020E-04   -0.98614E-03 11390   0.315E-01    0.378E-01
RMM:   4    -0.651226490929E+03    0.10235E-03   -0.31300E-03 11734   0.130E-01    0.280E-01
RMM:   5    -0.651226080357E+03    0.41057E-03   -0.61097E-04  9572   0.738E-02    0.109E-01
RMM:   6    -0.651226104878E+03   -0.24521E-04   -0.44688E-04  9688   0.456E-02    0.128E-01
RMM:   7    -0.651226134516E+03   -0.29638E-04   -0.38116E-04 10355   0.509E-02    0.178E-01
RMM:   8    -0.651225978163E+03    0.15635E-03   -0.15910E-04  8419   0.440E-02    0.349E-02
RMM:   9    -0.651225981857E+03   -0.36938E-05   -0.99347E-05  7443   0.212E-02
  35 F= -.65122598E+03 E0= -.65117553E+03  d E =-.317534E-02
       N       E                     dE             d eps       ncg     rms          rms(c)
DAV:   1    -0.651162789291E+03    0.63189E-01   -0.35891E+00  9048   0.956E+00    0.430E-01
RMM:   2    -0.651228369720E+03   -0.65580E-01   -0.66058E-01 13382   0.196E+00    0.845E-01
RMM:   3    -0.651228345535E+03    0.24184E-04   -0.39325E-02 11490   0.635E-01    0.766E-01
RMM:   4    -0.651227825504E+03    0.52003E-03   -0.12494E-02 12464   0.257E-01    0.546E-01
RMM:   5    -0.651226261753E+03    0.15638E-02   -0.24635E-03 11429   0.143E-01    0.214E-01
RMM:   6    -0.651226382408E+03   -0.12065E-03   -0.18031E-03 11321   0.815E-02    0.260E-01
RMM:   7    -0.651226412135E+03   -0.29727E-04   -0.13603E-03 11848   0.952E-02    0.328E-01
RMM:   8    -0.651225874686E+03    0.53745E-03   -0.64524E-04 10300   0.779E-02    0.798E-02
RMM:   9    -0.651225888290E+03   -0.13604E-04   -0.37255E-04 10165   0.372E-02    0.806E-02
RMM:  10    -0.651225863323E+03    0.24967E-04   -0.11753E-04  7388   0.282E-02    0.316E-02
RMM:  11    -0.651225861005E+03    0.23185E-05   -0.93681E-05  7455   0.195E-02
  36 F= -.65122586E+03 E0= -.65117536E+03  d E =-.305449E-02
       N       E                     dE             d eps       ncg     rms          rms(c)
DAV:   1    -0.651206035087E+03    0.19828E-01   -0.11870E+00  9072   0.549E+00    0.245E-01
RMM:   2    -0.651227174646E+03   -0.21140E-01   -0.21410E-01 13279   0.112E+00    0.429E-01
RMM:   3    -0.651227262254E+03   -0.87608E-04   -0.12643E-02 11391   0.359E-01    0.448E-01
RMM:   4    -0.651227211861E+03    0.50393E-04   -0.40394E-03 11422   0.154E-01    0.375E-01
RMM:   5    -0.651226470830E+03    0.74103E-03   -0.81163E-04  9297   0.878E-02    0.131E-01
RMM:   6    -0.651226460995E+03    0.98348E-05   -0.55201E-04  9726   0.494E-02    0.121E-01
RMM:   7    -0.651226464326E+03   -0.33306E-05   -0.49072E-04 10446   0.540E-02    0.178E-01
RMM:   8    -0.651226317771E+03    0.14656E-03   -0.16744E-04  8171   0.471E-02    0.549E-02
RMM:   9    -0.651226325454E+03   -0.76838E-05   -0.95748E-05  7234   0.247E-02
  37 F= -.65122633E+03 E0= -.65117587E+03  d E =-.351894E-02
       N       E                     dE             d eps       ncg     rms          rms(c)
DAV:   1    -0.651213219380E+03    0.13098E-01   -0.98134E-01  9696   0.474E+00    0.205E-01
RMM:   2    -0.651228930818E+03   -0.15711E-01   -0.15564E-01 13337   0.952E-01    0.422E-01
RMM:   3    -0.651228646748E+03    0.28407E-03   -0.87426E-03 11076   0.337E-01    0.378E-01
RMM:   4    -0.651228697705E+03   -0.50957E-04   -0.34227E-03 11808   0.141E-01    0.314E-01
RMM:   5    -0.651228139933E+03    0.55777E-03   -0.62915E-04  9116   0.804E-02    0.113E-01
RMM:   6    -0.651228131125E+03    0.88083E-05   -0.42905E-04  9659   0.403E-02    0.967E-02
RMM:   7    -0.651228145082E+03   -0.13957E-04   -0.50631E-04 11026   0.522E-02    0.150E-01
RMM:   8    -0.651228040786E+03    0.10430E-03   -0.12243E-04  7796   0.405E-02    0.374E-02
RMM:   9    -0.651228049121E+03   -0.83344E-05   -0.63168E-05  6319   0.203E-02
  38 F= -.65122805E+03 E0= -.65117748E+03  d E =-.172367E-02
       N       E                     dE             d eps       ncg     rms          rms(c)
DAV:   1    -0.651206215695E+03    0.21825E-01   -0.13422E+00  9312   0.559E+00    0.248E-01
RMM:   2    -0.651229428588E+03   -0.23213E-01   -0.23324E-01 13383   0.116E+00    0.417E-01
RMM:   3    -0.651229664863E+03   -0.23627E-03   -0.14262E-02 11304   0.385E-01    0.464E-01
RMM:   4    -0.651229668857E+03   -0.39943E-05   -0.48714E-03 12122   0.161E-01    0.383E-01
RMM:   5    -0.651228881089E+03    0.78777E-03   -0.89878E-04  9595   0.931E-02    0.128E-01
RMM:   6    -0.651228894662E+03   -0.13573E-04   -0.69112E-04 10065   0.458E-02    0.118E-01
RMM:   7    -0.651228976284E+03   -0.81621E-04   -0.58162E-04 11273   0.609E-02    0.207E-01
RMM:   8    -0.651228782043E+03    0.19424E-03   -0.26198E-04  9737   0.499E-02    0.492E-02
RMM:   9    -0.651228792208E+03   -0.10165E-04   -0.10436E-04  6781   0.254E-02    0.619E-02
RMM:  10    -0.651228775165E+03    0.17043E-04   -0.47844E-05  6057   0.224E-02    0.173E-02
RMM:  11    -0.651228778430E+03   -0.32646E-05   -0.40950E-05  6087   0.142E-02
  39 F= -.65122878E+03 E0= -.65117808E+03  d E =-.245298E-02
       N       E                     dE             d eps       ncg     rms          rms(c)
DAV:   1    -0.651207787923E+03    0.20987E-01   -0.11960E+00 10800   0.620E+00    0.499E-01
RMM:   2    -0.651254442758E+03   -0.46655E-01   -0.28165E-01 13917   0.125E+00    0.174E+00
RMM:   3    -0.651230730072E+03    0.23713E-01   -0.24522E-02 10794   0.626E-01    0.404E-01
RMM:   4    -0.651232465124E+03   -0.17351E-02   -0.10036E-02 13254   0.215E-01    0.646E-01
RMM:   5    -0.651230339442E+03    0.21257E-02   -0.17951E-03 11505   0.137E-01    0.184E-01
RMM:   6    -0.651230452108E+03   -0.11267E-03   -0.11113E-03 11437   0.749E-02    0.245E-01
RMM:   7    -0.651230273103E+03    0.17900E-03   -0.82098E-04 12278   0.767E-02    0.201E-01
RMM:   8    -0.651230121299E+03    0.15180E-03   -0.30922E-04 10266   0.603E-02    0.963E-02
RMM:   9    -0.651230115242E+03    0.60574E-05   -0.25976E-04 11131   0.340E-02    0.795E-02
RMM:  10    -0.651230086810E+03    0.28432E-04   -0.71527E-05  7035   0.264E-02    0.242E-02
RMM:  11    -0.651230085757E+03    0.10524E-05   -0.47893E-05  6333   0.193E-02
  40 F= -.65123009E+03 E0= -.65117924E+03  d E =-.130733E-02
       N       E                     dE             d eps       ncg     rms          rms(c)
DAV:   1    -0.651229504962E+03    0.58185E-03   -0.34780E-02 11208   0.105E+00    0.904E-02
RMM:   2    -0.651231077562E+03   -0.15726E-02   -0.83787E-03 13163   0.217E-01    0.349E-01
RMM:   3    -0.651230181637E+03    0.89592E-03   -0.80898E-04  8532   0.118E-01    0.901E-02
RMM:   4    -0.651230193249E+03   -0.11612E-04   -0.33966E-04 10156   0.451E-02    0.786E-02
RMM:   5    -0.651230161738E+03    0.31511E-04   -0.50144E-05  5939   0.252E-02    0.433E-02
RMM:   6    -0.651230157042E+03    0.46960E-05   -0.28427E-05  5746   0.202E-02
  41 F= -.65123016E+03 E0= -.65117926E+03  d E =-.137861E-02
       N       E                     dE             d eps       ncg     rms          rms(c)
DAV:   1    -0.651227579470E+03    0.25823E-02   -0.13755E-01 10992   0.210E+00    0.175E-01
RMM:   2    -0.651233659876E+03   -0.60804E-02   -0.32877E-02 13660   0.430E-01    0.703E-01
RMM:   3    -0.651230478909E+03    0.31810E-02   -0.31166E-03 10072   0.220E-01    0.274E-01
RMM:   4    -0.651230291832E+03    0.18708E-03   -0.12149E-03 11122   0.825E-02    0.142E-01
RMM:   5    -0.651230213501E+03    0.78331E-04   -0.28236E-04  9949   0.450E-02    0.101E-01
RMM:   6    -0.651230171263E+03    0.42239E-04   -0.94128E-05  6729   0.336E-02    0.546E-02
RMM:   7    -0.651230157282E+03    0.13980E-04   -0.13492E-04 10651   0.290E-02    0.445E-02
RMM:   8    -0.651230154108E+03    0.31744E-05   -0.35660E-05  5840   0.253E-02
  42 F= -.65123015E+03 E0= -.65117922E+03  d E =-.137568E-02
       N       E                     dE             d eps       ncg     rms          rms(c)
DAV:   1    -0.651219816890E+03    0.10340E-01   -0.45353E-01  9408   0.398E+00    0.196E-01
RMM:   2    -0.651232641455E+03   -0.12825E-01   -0.11470E-01 14131   0.726E-01    0.545E-01
RMM:   3    -0.651231162974E+03    0.14785E-02   -0.64436E-03 10206   0.339E-01    0.301E-01
RMM:   4    -0.651231399951E+03   -0.23698E-03   -0.27589E-03 12151   0.124E-01    0.298E-01
RMM:   5    -0.651230927880E+03    0.47207E-03   -0.48439E-04  9877   0.701E-02    0.982E-02
RMM:   6    -0.651230919449E+03    0.84307E-05   -0.30288E-04  9427   0.350E-02    0.786E-02
RMM:   7    -0.651230879153E+03    0.40296E-04   -0.27206E-04 10702   0.426E-02    0.690E-02
RMM:   8    -0.651230870423E+03    0.87303E-05   -0.79309E-05  6726   0.315E-02
  43 F= -.65123087E+03 E0= -.65117986E+03  d E =-.716315E-03
       N       E                     dE             d eps       ncg     rms          rms(c)
DAV:   1    -0.651212229020E+03    0.18650E-01   -0.71353E-01  9192   0.503E+00    0.255E-01
RMM:   2    -0.651234400598E+03   -0.22172E-01   -0.19436E-01 14005   0.962E-01    0.746E-01
RMM:   3    -0.651231660144E+03    0.27405E-02   -0.13015E-02 10499   0.420E-01    0.378E-01
RMM:   4    -0.651232003977E+03   -0.34383E-03   -0.41571E-03 12210   0.148E-01    0.373E-01
RMM:   5    -0.651231300441E+03    0.70354E-03   -0.74586E-04 10428   0.852E-02    0.155E-01
RMM:   6    -0.651231235569E+03    0.64873E-04   -0.48871E-04  9920   0.437E-02    0.871E-02
RMM:   7    -0.651231215977E+03    0.19592E-04   -0.40006E-04 11822   0.497E-02    0.108E-01
RMM:   8    -0.651231171053E+03    0.44924E-04   -0.12656E-04  8191   0.401E-02    0.529E-02
RMM:   9    -0.651231179695E+03   -0.86424E-05   -0.93424E-05  7865   0.239E-02
  44 F= -.65123118E+03 E0= -.65118009E+03  d E =-.102559E-02
       N       E                     dE             d eps       ncg     rms          rms(c)
DAV:   1    -0.651231409795E+03   -0.23874E-03   -0.39163E-02 12816   0.913E-01    0.173E-01
RMM:   2    -0.651235072764E+03   -0.36630E-02   -0.89259E-03 11556   0.327E-01    0.654E-01
RMM:   3    -0.651231662180E+03    0.34106E-02   -0.19788E-03 10285   0.178E-01    0.149E-01
RMM:   4    -0.651231687263E+03   -0.25083E-04   -0.49231E-04 11048   0.656E-02    0.158E-01
RMM:   5    -0.651231561515E+03    0.12575E-03   -0.13569E-04  9211   0.400E-02    0.557E-02
RMM:   6    -0.651231576685E+03   -0.15170E-04   -0.69069E-05  6435   0.308E-02    0.826E-02
RMM:   7    -0.651231546117E+03    0.30567E-04   -0.56761E-05  6858   0.261E-02    0.290E-02
RMM:   8    -0.651231554156E+03   -0.80387E-05   -0.30582E-05  5694   0.226E-02
  45 F= -.65123155E+03 E0= -.65118048E+03  d E =-.374461E-03
       N       E                     dE             d eps       ncg     rms          rms(c)
DAV:   1    -0.651231476752E+03    0.69365E-04   -0.52606E-02 12504   0.106E+00    0.199E-01
RMM:   2    -0.651236481674E+03   -0.50049E-02   -0.12031E-02 11578   0.380E-01    0.771E-01
RMM:   3    -0.651231896595E+03    0.45851E-02   -0.27062E-03 10678   0.208E-01    0.202E-01
RMM:   4    -0.651231828444E+03    0.68151E-04   -0.67851E-04 11458   0.749E-02    0.153E-01
RMM:   5    -0.651231729681E+03    0.98763E-04   -0.21369E-04 10795   0.452E-02    0.101E-01
RMM:   6    -0.651231700418E+03    0.29263E-04   -0.83323E-05  6928   0.351E-02    0.701E-02
RMM:   7    -0.651231694290E+03    0.61277E-05   -0.96677E-05  8330   0.263E-02
  46 F= -.65123169E+03 E0= -.65118059E+03  d E =-.514595E-03
       N       E                     dE             d eps       ncg     rms          rms(c)
DAV:   1    -0.651231643701E+03    0.56717E-04   -0.45031E-02 12840   0.103E+00    0.164E-01
RMM:   2    -0.651235329827E+03   -0.36861E-02   -0.10097E-02 11915   0.328E-01    0.662E-01
RMM:   3    -0.651232179895E+03    0.31499E-02   -0.20779E-03 11052   0.173E-01    0.179E-01
RMM:   4    -0.651232099079E+03    0.80816E-04   -0.56260E-04 11542   0.676E-02    0.113E-01
RMM:   5    -0.651232070503E+03    0.28576E-04   -0.17945E-04 10040   0.408E-02    0.112E-01
RMM:   6    -0.651232016805E+03    0.53699E-04   -0.62434E-05  6629   0.311E-02    0.492E-02
RMM:   7    -0.651232027574E+03   -0.10770E-04   -0.67813E-05  7200   0.257E-02    0.733E-02
RMM:   8    -0.651232000016E+03    0.27559E-04   -0.26113E-05  5438   0.234E-02    0.200E-02
RMM:   9    -0.651232005358E+03   -0.53426E-05   -0.20987E-05  5439   0.174E-02
  47 F= -.65123201E+03 E0= -.65118087E+03  d E =-.311068E-03
       N       E                     dE             d eps       ncg     rms          rms(c)
DAV:   1    -0.651231082959E+03    0.91706E-03   -0.11696E-01 12480   0.167E+00    0.267E-01
RMM:   2    -0.651240536972E+03   -0.94540E-02   -0.26718E-02 11747   0.534E-01    0.103E+00
RMM:   3    -0.651232284085E+03    0.82529E-02   -0.53960E-03 11152   0.280E-01    0.197E-01
RMM:   4    -0.651232393108E+03   -0.10902E-03   -0.14460E-03 12266   0.986E-02    0.226E-01
RMM:   5    -0.651232112288E+03    0.28082E-03   -0.34441E-04 10964   0.622E-02    0.988E-02
RMM:   6    -0.651232112855E+03   -0.56699E-06   -0.17543E-04  8817   0.419E-02    0.102E-01
RMM:   7    -0.651232073305E+03    0.39550E-04   -0.14620E-04 10864   0.322E-02    0.752E-02
RMM:   8    -0.651232056530E+03    0.16775E-04   -0.45226E-05  5840   0.303E-02    0.472E-02
RMM:   9    -0.651232051206E+03    0.53242E-05   -0.33048E-05  5805   0.204E-02
  48 F= -.65123205E+03 E0= -.65118083E+03  d E =-.356916E-03
       N       E                     dE             d eps       ncg     rms          rms(c)
DAV:   1    -0.651231960567E+03    0.95963E-04   -0.16920E-02 12600   0.633E-01    0.100E-01
RMM:   2    -0.651233246375E+03   -0.12858E-02   -0.37920E-03 11916   0.204E-01    0.379E-01
RMM:   3    -0.651232132120E+03    0.11143E-02   -0.73894E-04 10021   0.105E-01    0.859E-02
RMM:   4    -0.651232136081E+03   -0.39616E-05   -0.20623E-04 10246   0.447E-02    0.825E-02
RMM:   5    -0.651232098613E+03    0.37469E-04   -0.46673E-05  5950   0.269E-02    0.475E-02
RMM:   6    -0.651232094236E+03    0.43766E-05   -0.22414E-05  5404   0.218E-02
  49 F= -.65123209E+03 E0= -.65118090E+03  d E =-.399946E-03
       N       E                     dE             d eps       ncg     rms          rms(c)
DAV:   1    -0.651231911043E+03    0.18757E-03   -0.18265E-02 12744   0.660E-01    0.115E-01
RMM:   2    -0.651233870368E+03   -0.19593E-02   -0.44954E-03 11590   0.221E-01    0.506E-01
RMM:   3    -0.651232182994E+03    0.16874E-02   -0.98351E-04  9428   0.122E-01    0.163E-01
RMM:   4    -0.651232076821E+03    0.10617E-03   -0.23483E-04  9855   0.481E-02    0.628E-02
RMM:   5    -0.651232101019E+03   -0.24198E-04   -0.73796E-05  6681   0.296E-02    0.985E-02
RMM:   6    -0.651232049246E+03    0.51773E-04   -0.29551E-05  5495   0.256E-02    0.206E-02
RMM:   7    -0.651232064065E+03   -0.14820E-04   -0.30892E-05  5597   0.187E-02    0.603E-02
RMM:   8    -0.651232048599E+03    0.15466E-04   -0.16770E-05  5294   0.224E-02    0.991E-03
RMM:   9    -0.651232050646E+03   -0.20468E-05   -0.11556E-05  5107   0.992E-03
  50 F= -.65123205E+03 E0= -.65118089E+03  d E =-.356356E-03
       N       E                     dE             d eps       ncg     rms          rms(c)
DAV:   1    -0.651232038631E+03    0.99685E-05   -0.66244E-03 12456   0.396E-01    0.636E-02
RMM:   2    -0.651232541798E+03   -0.50317E-03   -0.14866E-03 11605   0.128E-01    0.237E-01
RMM:   3    -0.651232101217E+03    0.44058E-03   -0.28915E-04  8591   0.685E-02    0.462E-02
RMM:   4    -0.651232110712E+03   -0.94957E-05   -0.74590E-05  7540   0.299E-02
  51 F= -.65123211E+03 E0= -.65118093E+03  d E =-.416422E-03
       N       E                     dE             d eps       ncg     rms          rms(c)
DAV:   1    -0.651232096540E+03    0.46767E-05   -0.95712E-04 13128   0.147E-01    0.374E-02
RMM:   2    -0.651232361026E+03   -0.26449E-03   -0.29930E-04  8265   0.596E-02    0.214E-01
RMM:   3    -0.651232109120E+03    0.25191E-03   -0.91699E-05  6503   0.461E-02    0.504E-02
RMM:   4    -0.651232096222E+03    0.12899E-04   -0.18771E-05  5447   0.188E-02    0.220E-02
RMM:   5    -0.651232100085E+03   -0.38636E-05   -0.91178E-06  5073   0.147E-02
  52 F= -.65123210E+03 E0= -.65118092E+03  d E =-.405795E-03
       N       E                     dE             d eps       ncg     rms          rms(c)
DAV:   1    -0.651232093338E+03    0.28834E-05   -0.15793E-04 13104   0.617E-02    0.157E-02
RMM:   2    -0.651232150289E+03   -0.56951E-04   -0.46212E-05  5949   0.245E-02    0.107E-01
RMM:   3    -0.651232095017E+03    0.55273E-04   -0.19692E-05  5488   0.242E-02    0.217E-02
RMM:   4    -0.651232092589E+03    0.24282E-05   -0.40336E-06  4467   0.823E-03
  53 F= -.65123209E+03 E0= -.65118090E+03  d E =-.398298E-03
       N       E                     dE             d eps       ncg     rms          rms(c)
DAV:   1    -0.651231539485E+03    0.55553E-03   -0.31097E-02  9360   0.940E-01    0.466E-02
RMM:   2    -0.651232345361E+03   -0.80588E-03   -0.71931E-03 13720   0.210E-01    0.166E-01
RMM:   3    -0.651232259036E+03    0.86325E-04   -0.52333E-04  8548   0.831E-02    0.605E-02
RMM:   4    -0.651232279470E+03   -0.20434E-04   -0.17420E-04  9155   0.342E-02    0.695E-02
RMM:   5    -0.651232252165E+03    0.27305E-04   -0.30291E-05  5639   0.227E-02    0.284E-02
RMM:   6    -0.651232250055E+03    0.21102E-05   -0.15664E-05  5442   0.160E-02
  54 F= -.65123225E+03 E0= -.65118105E+03  d E =-.157466E-03
       N       E                     dE             d eps       ncg     rms          rms(c)
DAV:   1    -0.651231630557E+03    0.62161E-03   -0.30060E-02  9384   0.926E-01    0.597E-02
RMM:   2    -0.651232911521E+03   -0.12810E-02   -0.73687E-03 13717   0.211E-01    0.346E-01
RMM:   3    -0.651232320557E+03    0.59096E-03   -0.64771E-04  8647   0.993E-02    0.561E-02
RMM:   4    -0.651232363770E+03   -0.43213E-04   -0.23587E-04  9880   0.366E-02    0.952E-02
RMM:   5    -0.651232317970E+03    0.45800E-04   -0.36653E-05  5773   0.235E-02    0.251E-02
RMM:   6    -0.651232320368E+03   -0.23978E-05   -0.23680E-05  5700   0.172E-02
  55 F= -.65123232E+03 E0= -.65118112E+03  d E =-.227780E-03
       N       E                     dE             d eps       ncg     rms          rms(c)
DAV:   1    -0.651232299779E+03    0.18191E-04   -0.14893E-03 12048   0.203E-01    0.379E-02
RMM:   2    -0.651232638560E+03   -0.33878E-03   -0.52392E-04  9215   0.681E-02    0.229E-01
RMM:   3    -0.651232340656E+03    0.29790E-03   -0.13170E-04  7041   0.504E-02    0.658E-02
RMM:   4    -0.651232317769E+03    0.22886E-04   -0.25283E-05  5597   0.205E-02    0.135E-02
RMM:   5    -0.651232319949E+03   -0.21793E-05   -0.93927E-06  5155   0.139E-02
  56 F= -.65123232E+03 E0= -.65118111E+03  d E =-.227360E-03
       N       E                     dE             d eps       ncg     rms          rms(c)
DAV:   1    -0.651231770046E+03    0.54772E-03   -0.47957E-02 12600   0.121E+00    0.165E-01
RMM:   2    -0.651235594427E+03   -0.38244E-02   -0.12638E-02 11593   0.349E-01    0.632E-01
RMM:   3    -0.651232562935E+03    0.30315E-02   -0.23284E-03 10553   0.173E-01    0.170E-01
RMM:   4    -0.651232532848E+03    0.30087E-04   -0.61750E-04 11209   0.667E-02    0.132E-01
RMM:   5    -0.651232452901E+03    0.79947E-04   -0.15148E-04  9490   0.392E-02    0.803E-02
RMM:   6    -0.651232436139E+03    0.16762E-04   -0.55613E-05  6085   0.304E-02    0.620E-02
RMM:   7    -0.651232425437E+03    0.10702E-04   -0.57751E-05  6631   0.254E-02    0.477E-02
RMM:   8    -0.651232420529E+03    0.49082E-05   -0.24198E-05  5424   0.223E-02
  57 F= -.65123242E+03 E0= -.65118122E+03  d E =-.100581E-03
       N       E                     dE             d eps       ncg     rms          rms(c)
DAV:   1    -0.651231925364E+03    0.50007E-03   -0.33392E-02 12624   0.102E+00    0.141E-01
RMM:   2    -0.651234900257E+03   -0.29749E-02   -0.90162E-03 11420   0.293E-01    0.569E-01
RMM:   3    -0.651232525000E+03    0.23753E-02   -0.17119E-03  9829   0.149E-01    0.168E-01
RMM:   4    -0.651232451028E+03    0.73972E-04   -0.45026E-04 10449   0.583E-02    0.985E-02
RMM:   5    -0.651232442161E+03    0.88669E-05   -0.11970E-04  7895   0.341E-02    0.101E-01
RMM:   6    -0.651232393753E+03    0.48408E-04   -0.41926E-05  5813   0.264E-02    0.338E-02
RMM:   7    -0.651232403231E+03   -0.94783E-05   -0.43770E-05  5996   0.225E-02
  58 F= -.65123240E+03 E0= -.65118122E+03  d E =-.832826E-04
       N       E                     dE             d eps       ncg     rms          rms(c)
DAV:   1    -0.651232332230E+03    0.61523E-04   -0.73141E-03 12672   0.471E-01    0.627E-02
RMM:   2    -0.651232899744E+03   -0.56751E-03   -0.18370E-03 11302   0.133E-01    0.252E-01
RMM:   3    -0.651232452909E+03    0.44684E-03   -0.33802E-04  8812   0.725E-02    0.712E-02
RMM:   4    -0.651232444201E+03    0.87086E-05   -0.87330E-05  7553   0.312E-02
  59 F= -.65123244E+03 E0= -.65118122E+03  d E =-.124252E-03
       N       E                     dE             d eps       ncg     rms          rms(c)
DAV:   1    -0.651232423454E+03    0.29455E-04   -0.35465E-03 12720   0.322E-01    0.789E-02
RMM:   2    -0.651233823277E+03   -0.13998E-02   -0.15203E-03 10182   0.130E-01    0.499E-01
RMM:   3    -0.651232531841E+03    0.12914E-02   -0.47612E-04  7998   0.912E-02    0.128E-01
RMM:   4    -0.651232445242E+03    0.86600E-04   -0.80707E-05  6820   0.339E-02    0.397E-02
RMM:   5    -0.651232451499E+03   -0.62570E-05   -0.28538E-05  5525   0.225E-02
  60 F= -.65123245E+03 E0= -.65118124E+03  d E =-.131550E-03
       N       E                     dE             d eps       ncg     rms          rms(c)
DAV:   1    -0.651232429024E+03    0.16218E-04   -0.60257E-04 12936   0.136E-01    0.224E-02
RMM:   2    -0.651232482548E+03   -0.53524E-04   -0.14457E-04  6940   0.378E-02    0.839E-02
RMM:   3    -0.651232435412E+03    0.47135E-04   -0.32099E-05  5630   0.285E-02    0.261E-02
RMM:   4    -0.651232434242E+03    0.11700E-05   -0.92033E-06  4794   0.122E-02
  61 F= -.65123243E+03 E0= -.65118122E+03  d E =-.114294E-03
       N       E                     dE             d eps       ncg     rms          rms(c)
DAV:   1    -0.651232178440E+03    0.25697E-03   -0.10722E-02  9696   0.617E-01    0.314E-02
RMM:   2    -0.651232535605E+03   -0.35717E-03   -0.30601E-03 13151   0.128E-01    0.123E-01
RMM:   3    -0.651232481088E+03    0.54517E-04   -0.21015E-04  7432   0.564E-02    0.376E-02
RMM:   4    -0.651232494506E+03   -0.13418E-04   -0.58754E-05  6036   0.236E-02    0.546E-02
RMM:   5    -0.651232478999E+03    0.15507E-04   -0.16882E-05  5335   0.217E-02    0.158E-02
RMM:   6    -0.651232478217E+03    0.78212E-06   -0.74480E-06  4975   0.102E-02
  62 F= -.65123248E+03 E0= -.65118125E+03  d E =-.439744E-04
       N       E                     dE             d eps       ncg     rms          rms(c)
DAV:   1    -0.651232389458E+03    0.89541E-04   -0.38470E-03  9768   0.366E-01    0.221E-02
RMM:   2    -0.651232580040E+03   -0.19058E-03   -0.11475E-03 11855   0.781E-02    0.129E-01
RMM:   3    -0.651232498871E+03    0.81170E-04   -0.97600E-05  6413   0.434E-02    0.182E-02
RMM:   4    -0.651232502917E+03   -0.40467E-05   -0.24509E-05  5562   0.172E-02
  63 F= -.65123250E+03 E0= -.65118126E+03  d E =-.686751E-04
       N       E                     dE             d eps       ncg     rms          rms(c)
DAV:   1    -0.651232086066E+03    0.41280E-03   -0.15457E-02  9480   0.734E-01    0.328E-02
RMM:   2    -0.651232538848E+03   -0.45278E-03   -0.44393E-03 13454   0.153E-01    0.795E-02
RMM:   3    -0.651232536204E+03    0.26444E-05   -0.28512E-04  7586   0.643E-02    0.492E-02
RMM:   4    -0.651232545447E+03   -0.92435E-05   -0.10029E-04  7329   0.262E-02    0.541E-02
RMM:   5    -0.651232531690E+03    0.13758E-04   -0.19620E-05  5422   0.202E-02    0.191E-02
RMM:   6    -0.651232531979E+03   -0.28871E-06   -0.10814E-05  5195   0.135E-02
  64 F= -.65123253E+03 E0= -.65118128E+03  d E =-.977364E-04
       N       E                     dE             d eps       ncg     rms          rms(c)
DAV:   1    -0.651232633452E+03   -0.10176E-03   -0.22109E-03 12408   0.223E-01    0.890E-02
RMM:   2    -0.651233720422E+03   -0.10870E-02   -0.12652E-03  9988   0.133E-01    0.397E-01
RMM:   3    -0.651232626889E+03    0.10935E-02   -0.47906E-04  8327   0.959E-02    0.103E-01
RMM:   4    -0.651232574202E+03    0.52687E-04   -0.62967E-05  6435   0.336E-02    0.410E-02
RMM:   5    -0.651232570305E+03    0.38967E-05   -0.27655E-05  5459   0.221E-02
  65 F= -.65123257E+03 E0= -.65118132E+03  d E =-.383264E-04
