HECN                                    
           1
     8.932500    0.000000    0.000000
     0.005753    9.055598    0.000000
     0.032102   -0.015743    8.937128
   Hf   Nb   Zr   N    C    Cr   W 
   7   6   7  13  19   6   6
Direct configuration=     1
   0.99688001  0.99204997  0.99924002
   0.25398003  0.99714995  0.24912000
   0.24803003  0.50165000  0.24955001
   0.50501006  0.49745998  0.99834003
   0.50479003  0.24631001  0.74710002
   0.99427992  0.50449999  0.49779000
   0.49950005  0.75481999  0.74817004
   0.99437004  0.23617001  0.26379999
   0.75718000  0.74102998  0.01100000
   0.00201000  0.25541000  0.73894001
   0.75307001  0.26163001  0.50533002
   0.99514004  0.74492004  0.74511997
   0.25679999  0.49462002  0.74545002
   0.24788999  0.24839000  0.99657997
   0.50833000  0.25676999  0.25376001
   0.74879004  0.98787999  0.26967001
   0.75719000  0.25603001  0.99591997
   0.24762001  0.74973999  0.99974006
   0.25272001  0.24823001  0.50015003
   0.24457999  0.75048999  0.49983999
   0.24982001  0.24942998  0.24825000
   0.26146999  0.99984002  0.99295996
   0.00281000  0.25024000  0.00130000
   0.75313998  0.24617000  0.25492002
   0.74767001  0.99748000  0.01202000
   0.50714994  0.99977000  0.24673000
   0.99051999  0.48088002  0.24100998
   0.50519005  0.76130999  0.00855000
   0.98896989  0.00202000  0.73708999
   0.75744996  0.24437997  0.74896999
   0.73632001  0.00417000  0.51063000
   0.50563996  0.23264999  0.49544997
   0.50008998  0.00061000  0.73471998
   0.99720000  0.99771992  0.25899999
   0.50427997  0.24673000  0.00262000
   0.25133999  0.74958002  0.24910999
   0.24328000  0.50072997  0.99510994
   0.99837005  0.74313996  0.00460000
   0.75633000  0.73891003  0.25767000
   0.75839004  0.50315998  0.00288000
   0.50700002  0.50333002  0.25878999
   0.24900999  0.25315000  0.74854000
   0.24446000  0.99823996  0.50287998
   0.99804009  0.24229999  0.50128003
   0.24177002  0.75340997  0.75018002
   0.25841001  0.50062002  0.50129001
   0.99000004  0.76215003  0.49746000
   0.99203996  0.50055999  0.75138002
   0.75036005  0.74888000  0.74756004
   0.74036002  0.50197000  0.50067003
   0.50575006  0.74958002  0.49720000
   0.50501003  0.50217998  0.73912003
   0.51588997  0.01358000  0.98075008
   0.99841994  0.50976998  0.98613004
   0.50379003  0.73926997  0.25905001
   0.23780002  0.01082000  0.74607998
   0.47957999  0.98308000  0.49717999
   0.74279003  0.97869994  0.76450995
   0.99864998  0.77573999  0.26102000
   0.73551001  0.51468004  0.26666001
   0.02362000  0.99783001  0.49557002
   0.50539000  0.52833005  0.49917999
   0.73876003  0.52828003  0.73814999
   0.75400003  0.72937999  0.49116997
HECN                                    
           1
     8.885997    0.010552   -0.009171
     0.016421    8.976042   -0.003828
     0.022741   -0.019339    8.895541
   Hf   Nb   Zr   N    C    Cr   W 
   7   6   7  13  19   6   6
Direct configuration=     2
   0.99571204  0.99482512  0.99389756
   0.26180061  0.99743846  0.24533237
   0.24694544  0.50142371  0.24584038
   0.50176725  0.50018271  0.99919810
   0.50546319  0.23786402  0.74553697
   0.99624983  0.50131354  0.49917016
   0.49746841  0.76606917  0.75280097
   0.99446179  0.23363233  0.26126979
   0.75494073  0.74332916  0.00996057
   0.00325891  0.25424084  0.74123573
   0.75204953  0.25791035  0.50596302
   0.99735027  0.74568556  0.74989213
   0.25289924  0.49576685  0.75022071
   0.24797832  0.24696105  0.99534664
   0.50694759  0.24931562  0.25276706
   0.73953245  0.99211520  0.26758532
   0.75716437  0.25295869  0.99499297
   0.25101268  0.75101013  0.99861666
   0.25538821  0.24709083  0.50142628
   0.24875396  0.75177684  0.50111950
   0.24981479  0.24985646  0.24884064
   0.25812969  0.00024459  0.99494447
   0.00227455  0.24781766  0.00073646
   0.75449723  0.24826884  0.25553516
   0.74750052  0.99628316  0.00515721
   0.50105688  0.99751202  0.24817625
   0.99174481  0.48408015  0.24417835
   0.50690535  0.75929186  0.00492880
   0.98890255  0.00224707  0.74078563
   0.75313876  0.24452855  0.74751609
   0.73842209  0.00254091  0.51260133
   0.50633979  0.23311966  0.50166049
   0.50286478  0.00019982  0.73818840
   0.00167160  0.00167699  0.25306040
   0.50483248  0.24654887 -0.00252290
   0.25153429  0.74863732  0.24956134
   0.24434648  0.50073625  0.99743255
   0.99657637  0.74247617  0.00465589
   0.75242657  0.74021704  0.25305526
   0.75952779  0.50500868  0.00253344
   0.50031925  0.50775330  0.25407041
   0.25064512  0.25014688  0.74818581
   0.25362326  0.99801458  0.50559982
   0.99764511  0.24559606  0.50231730
   0.24400816  0.75370040  0.75003135
   0.25545573  0.50087696  0.49817821
   0.99144275  0.75834656  0.50084532
   0.99225387  0.50062608  0.75271649
   0.74759501  0.75735955  0.74875887
   0.74674354  0.49662204  0.50306193
   0.50502210  0.75735482  0.49441743
   0.50209640  0.50107584  0.74428928
   0.51811311  0.01441354  0.97980800
   0.99928965  0.51224786  0.98223439
   0.50439999  0.73782567  0.25818588
   0.23694804  0.01269571  0.74681016
   0.47593769  0.98337938  0.49876409
   0.73966747  0.97408952  0.76716219
   0.00302828  0.77203185  0.25526401
   0.73837829  0.51070022  0.25896512
   0.01820491  0.00155547  0.50147110
   0.50255078  0.52320108  0.49718812
   0.74379691  0.52025860  0.74352701
   0.75318276  0.73792556  0.49494971
HECN                                    
           1
     8.884491    0.010894   -0.009468
     0.016766    8.973466   -0.003952
     0.022438   -0.019455    8.894194
   Hf   Nb   Zr   N    C    Cr   W 
   7   6   7  13  19   6   6
Direct configuration=     3
   0.99567373  0.99491576  0.99372374
   0.26205505  0.99744753  0.24520941
   0.24691002  0.50141631  0.24571965
   0.50166161  0.50027179  0.99922595
   0.50548539  0.23758804  0.74548602
   0.99631413  0.50120938  0.49921508
   0.49740199  0.76643682  0.75295172
   0.99446479  0.23354938  0.26118744
   0.75486771  0.74340434  0.00992671
   0.00329968  0.25420262  0.74131044
   0.75201648  0.25778888  0.50598352
   0.99742234  0.74571055  0.75004747
   0.25277237  0.49580453  0.75037581
   0.24798121  0.24691435  0.99530649
   0.50690285  0.24907212  0.25273460
   0.73923086  0.99225389  0.26751725
   0.75716363  0.25285834  0.99496277
   0.25112303  0.75105148  0.99858025
   0.25547516  0.24705353  0.50146788
   0.24888983  0.75181874  0.50116129
   0.24981462  0.24987040  0.24885986
   0.25802101  0.00025796  0.99500892
   0.00225720  0.24773854  0.00071807
   0.75454135  0.24833736  0.25555524
   0.74749482  0.99624397  0.00493391
   0.50085867  0.99743851  0.24822307
   0.99178466  0.48418469  0.24428151
   0.50696115  0.75922582  0.00481102
   0.98890048  0.00225454  0.74090586
   0.75299837  0.24453355  0.74746864
   0.73849065  0.00248764  0.51266552
   0.50636276  0.23313506  0.50186257
   0.50295524  0.00018636  0.73830132
   0.00181680  0.00180602  0.25286737
   0.50485030  0.24654286 -0.00269020
   0.25154066  0.74860652  0.24957602
   0.24438128  0.50073644  0.99750815
   0.99651801  0.74245455  0.00465764
   0.75229930  0.74025982  0.25290501
   0.75956474  0.50506903  0.00252222
   0.50010144  0.50789800  0.25391670
   0.25069846  0.25004870  0.74817430
   0.25392164  0.99800690  0.50568861
   0.99763216  0.24570377  0.50235108
   0.24408100  0.75370980  0.75002660
   0.25535945  0.50088543  0.49807688
   0.99148998  0.75822229  0.50095545
   0.99226088  0.50062824  0.75275998
   0.74750470  0.75763670  0.74879790
   0.74695163  0.49644711  0.50313988
   0.50499801  0.75760882  0.49432699
   0.50200177  0.50103995  0.74445735
   0.51818541  0.01444067  0.97977744
   0.99931773  0.51232873  0.98210771
   0.50441987  0.73777845  0.25815777
   0.23692026  0.01275703  0.74683391
   0.47581917  0.98338932  0.49881551
   0.73956609  0.97393905  0.76724831
   0.00317076  0.77191046  0.25507684
   0.73847156  0.51056998  0.25871482
   0.01802869  0.00167747  0.50166296
   0.50245849  0.52303360  0.49712315
   0.74396136  0.51999643  0.74370201
   0.75315595  0.73820483  0.49507277
HECN                                    
           1
     8.940747    0.021691   -0.009472
     0.027749    8.991232   -0.009749
     0.022609   -0.025191    8.942187
   Hf   Nb   Zr   N    C    Cr   W 
   7   6   7  13  19   6   6
Direct configuration=     4
   0.99583506  0.99532468  0.99037617
   0.26249730  0.99692771  0.24484522
   0.24449563  0.50038378  0.24557719
   0.50134032  0.49995678  0.99921212
   0.50517007  0.23512264  0.74655192
   0.99913448  0.50031727  0.50001931
   0.49718446  0.76670770  0.75307436
   0.99500209  0.23378494  0.26013423
   0.75351920  0.74483846  0.00830731
   0.00362105  0.25248381  0.74313707
   0.75207838  0.25421307  0.50634857
   0.99706869  0.74543940  0.75381105
   0.25033034  0.49576078  0.75173126
   0.24870161  0.24574507  0.99507719
   0.50588577  0.24968618  0.25120023
   0.73958689  0.99217708  0.26484942
   0.75508095  0.25239754  0.99474404
   0.25130049  0.75302765  0.99882741
   0.25523687  0.24702490  0.50159291
   0.24890891  0.75217519  0.50139523
   0.25000712  0.24911350  0.24872181
   0.25553568  0.00046250  0.99630305
   0.00228668  0.24638912  0.00024144
   0.75445653  0.24943625  0.25511034
   0.74674145  0.99598900 -0.00058450
   0.49832171  0.99566152  0.24837705
   0.99255823  0.48840383  0.24630842
   0.50743942  0.75852201  0.00207292
   0.98930347  0.00273134  0.74336785
   0.75170724  0.24637936  0.74629455
   0.74307437  0.00023444  0.51365854
   0.50710722  0.23553147  0.50318145
   0.50581671  0.00082124  0.74257984
   0.00240302 -0.00213811  0.25130850
   0.50459365  0.24613190 -0.00407087
   0.25214903  0.74880268  0.24908994
   0.24421634  0.50093680  0.99742540
   0.99749312  0.74229671  0.00507339
   0.74987784  0.74134196  0.25311732
   0.76026120  0.50458933  0.00250318
   0.49904383  0.50853515  0.25185183
   0.25133691  0.24803880  0.74817497
   0.25502377  0.99890109  0.50810135
   0.99869746  0.24761017  0.50235895
   0.24532954  0.75470575  0.75072192
   0.25436224  0.50087831  0.49754833
   0.99312563  0.75669016  0.50115755
   0.99397388  0.50028500  0.75416269
   0.74737656  0.75770492  0.74852323
   0.74730675  0.49823308  0.50202463
   0.50580930  0.75996296  0.49330121
   0.50178973  0.50169314  0.74544670
   0.52082385  0.01356965  0.97821985
   0.99961861  0.51497871  0.97930878
   0.50303582  0.73526542  0.25863769
   0.23335509  0.01322343  0.74618625
   0.47433382  0.98434400  0.49980448
   0.73615719  0.97264282  0.77068230
   0.00442184  0.77448862  0.25157241
   0.73730834  0.50944057  0.25559325
   0.01992463  0.00338103  0.50377396
   0.50486792  0.52264847  0.49565812
   0.74566448  0.52064081  0.74940789
   0.74998460  0.73700619  0.49688992
HECN                                    
           1
     8.943744    0.022266   -0.009473
     0.028335    8.992179   -0.010057
     0.022619   -0.025497    8.944744
   Hf   Nb   Zr   N    C    Cr   W 
   7   6   7  13  19   6   6
Direct configuration=     5
   0.99584358  0.99534630  0.99019880
   0.26252074  0.99690003  0.24482591
   0.24436788  0.50032903  0.24556961
   0.50132333  0.49994005  0.99921137
   0.50515354  0.23499161  0.74660832
   0.99928385  0.50026969  0.50006189
   0.49717293  0.76672212  0.75308087
   0.99503052  0.23379739  0.26007843
   0.75344772  0.74491475  0.00822155
   0.00363817  0.25239246  0.74323380
   0.75208189  0.25402296  0.50636779
   0.99704998  0.74542513  0.75401047
   0.25020106  0.49575866  0.75180309
   0.24873982  0.24568285  0.99506500
   0.50583188  0.24971884  0.25111895
   0.73960575  0.99217288  0.26470805
   0.75497073  0.25237317  0.99473243
   0.25130976  0.75313272  0.99884058
   0.25522426  0.24702340  0.50159954
   0.24890989  0.75219415  0.50140764
   0.25001736  0.24907324  0.24871447
   0.25540410  0.00047358  0.99637164
   0.00228833  0.24631736  0.00021614
   0.75445197  0.24949467  0.25508680
   0.74670159  0.99597531 -0.00087692
   0.49818752  0.99556721  0.24838515
   0.99259890  0.48862818  0.24641597
   0.50746479  0.75848447  0.00192781
   0.98932477  0.00275674  0.74349833
   0.75163877  0.24647755  0.74623240
   0.74331718  0.00011439  0.51371108
   0.50714647  0.23565889  0.50325142
   0.50596815  0.00085496  0.74280657
   0.00243431 -0.00234790  0.25122576
   0.50458009  0.24611002 -0.00414404
   0.25218122  0.74881306  0.24906419
   0.24420759  0.50094746  0.99742102
   0.99754476  0.74228827  0.00509542
   0.74974958  0.74139966  0.25312861
   0.76029810  0.50456378  0.00250216
   0.49898780  0.50856903  0.25174243
   0.25137085  0.24793189  0.74817493
   0.25508206  0.99894864  0.50822923
   0.99875373  0.24771146  0.50235943
   0.24539557  0.75475864  0.75075880
   0.25430945  0.50087798  0.49752032
   0.99321232  0.75660860  0.50116821
   0.99406459  0.50026668  0.75423700
   0.74736977  0.75770854  0.74850868
   0.74732543  0.49832798  0.50196560
   0.50585210  0.76008804  0.49324693
   0.50177846  0.50172792  0.74549915
   0.52096358  0.01352312  0.97813729
   0.99963437  0.51511949  0.97916056
   0.50296271  0.73513191  0.25866304
   0.23316632  0.01324843  0.74615195
   0.47425513  0.98439489  0.49985692
   0.73597680  0.97257423  0.77086422
   0.00448791  0.77462551  0.25138680
   0.73724683  0.50938049  0.25542780
   0.02002489  0.00347156  0.50388588
   0.50499550  0.52262780  0.49558047
   0.74575459  0.52067515  0.74971026
   0.74981679  0.73694272  0.49698617
HECN                                    
           1
     8.903743    0.028398   -0.011089
     0.034462    8.957345   -0.009862
     0.020827   -0.025242    8.892107
   Hf   Nb   Zr   N    C    Cr   W 
   7   6   7  13  19   6   6
Direct configuration=     6
   0.99622757  0.99552108  0.98790130
   0.26139491  0.99691155  0.24600719
   0.24211529  0.49958085  0.24572973
   0.50116264  0.49958849  0.99852676
   0.50467107  0.23560612  0.74704482
   0.99987343  0.50048248  0.50104292
   0.49734708  0.76391133  0.75156082
   0.99512136  0.23261552  0.25945059
   0.75290439  0.74588730  0.00669343
   0.00406969  0.25018427  0.74371120
   0.75280504  0.25159826  0.50630597
   0.99688859  0.74492191  0.75668460
   0.24895212  0.49526501  0.75228628
   0.24890264  0.24456719  0.99492005
   0.50544862  0.25170444  0.25045314
   0.74059565  0.99160599  0.26306564
   0.75372067  0.25215960  0.99469825
   0.25141731  0.75440852  0.99900546
   0.25512456  0.24780871  0.50176054
   0.24888222  0.75192606  0.50167866
   0.25027666  0.24814743  0.24840249
   0.25227935  0.00073170  0.99794611
   0.00195165  0.24511183 -0.00027688
   0.75396092  0.25042416  0.25420850
   0.74636062  0.99595099 -0.00551950
   0.49809716  0.99424980  0.24869755
   0.99344690  0.49257407  0.24892043
   0.50755135  0.75788654 -0.00069229
   0.99051045  0.00319406  0.74455403
   0.75101235  0.24913381  0.74544375
   0.74977773 -0.00113284  0.51304351
   0.50802058  0.23933331  0.50301147
   0.50976990  0.00064215  0.74749262
   0.00208969 -0.00364504  0.25092690
   0.50392869  0.24544141 -0.00411814
   0.25238956  0.74888572  0.24878744
   0.24352072  0.50120100  0.99671131
   0.99843965  0.74261267  0.00593609
   0.74805839  0.74172942  0.25410622
   0.76087283  0.50404519  0.00252706
   0.49843278  0.50783912  0.25077187
   0.25154286  0.24635862  0.74842382
   0.25520789  0.99973199  0.51053274
   0.99979166  0.24882318  0.50241717
   0.24576123  0.75590903  0.75141409
   0.25415851  0.50102964  0.49790940
   0.99342043  0.75642847  0.50017777
   0.99584733  0.49978292  0.75516758
   0.74773505  0.75634892  0.74809055
   0.74788127  0.49948347  0.50159765
   0.50656152  0.76155020  0.49261440
   0.50270100  0.50301132  0.74479710
   0.52460586  0.01195230  0.97584386
   0.99946044  0.51872265  0.97650859
   0.50140440  0.73248461  0.26018519
   0.22748478  0.01342952  0.74462956
   0.47277259  0.98580812  0.50122887
   0.73154974  0.97111825  0.77482817
   0.00485850  0.77463773  0.24909817
   0.73503103  0.50958688  0.25324346
   0.02137362  0.00442912  0.50575340
   0.50777851  0.52218640  0.49363059
   0.74742365  0.52201375  0.75513157
   0.74727576  0.73456145  0.49736857
HECN                                    
           1
     8.911941    0.027141   -0.010758
     0.033206    8.964484   -0.009902
     0.021194   -0.025294    8.902895
   Hf   Nb   Zr   N    C    Cr   W 
   7   6   7  13  19   6   6
Direct configuration=     7
   0.99614863  0.99548517  0.98837495
   0.26162665  0.99690902  0.24576369
   0.24257893  0.49973447  0.24569680
   0.50119570  0.49966080  0.99866791
   0.50477047  0.23547962  0.74695485
   0.99975204  0.50043878  0.50084064
   0.49731088  0.76448968  0.75187419
   0.99510251  0.23285871  0.25958002
   0.75301644  0.74568711  0.00700850
   0.00398052  0.25063867  0.74361275
   0.75265581  0.25209725  0.50631868
   0.99692164  0.74502543  0.75613328
   0.24920916  0.49536640  0.75218671
   0.24886896  0.24479676  0.99494993
   0.50552784  0.25129585  0.25059043
   0.74039184  0.99172277  0.26340421
   0.75397800  0.25220336  0.99470534
   0.25139534  0.75414604  0.99897147
   0.25514519  0.24764712  0.50172735
   0.24888787  0.75198121  0.50162278
   0.25022316  0.24833795  0.24846680
   0.25292264  0.00067815  0.99762162
   0.00202081  0.24535982 -0.00017523
   0.75406218  0.25023284  0.25438960
   0.74643099  0.99595594 -0.00456234
   0.49811556  0.99452085  0.24863314
   0.99327279  0.49176232  0.24840408
   0.50753354  0.75800957 -0.00015211
   0.99026637  0.00310425  0.74433633
   0.75114173  0.24858719  0.74560638
   0.74844751 -0.00087530  0.51318089
   0.50784116  0.23857742  0.50306092
   0.50898700  0.00068649  0.74652637
   0.00216046 -0.00337821  0.25098852
   0.50406270  0.24557888 -0.00412346
   0.25234669  0.74887080  0.24884449
   0.24366219  0.50114873  0.99685765
   0.99825543  0.74254606  0.00576274
   0.74840657  0.74166133  0.25390473
   0.76075444  0.50415197  0.00252190
   0.49854698  0.50798922  0.25097199
   0.25150721  0.24668235  0.74837249
   0.25518201  0.99957084  0.51005783
   0.99957813  0.24859459  0.50240523
   0.24568609  0.75567239  0.75127898
   0.25418959  0.50099841  0.49782919
   0.99337760  0.75646556  0.50038195
   0.99548020  0.49988271  0.75497565
   0.74765967  0.75662872  0.74817673
   0.74776701  0.49924581  0.50167349
   0.50641570  0.76124946  0.49274478
   0.50251128  0.50274739  0.74494181
   0.52385586  0.01227602  0.97631655
   0.99949687  0.51798127  0.97705536
   0.50172478  0.73302908  0.25987142
   0.22865455  0.01339145  0.74494364
   0.47307795  0.98551714  0.50094608
   0.73246080  0.97141719  0.77401110
   0.00478230  0.77463526  0.24957000
   0.73548732  0.50954409  0.25369388
   0.02109602  0.00423230  0.50536833
   0.50720557  0.52227761  0.49403248
   0.74708002  0.52173858  0.75401381
   0.74779854  0.73505104  0.49728982
HECN                                    
           1
     8.923651    0.025313   -0.013254
     0.031342    8.989951   -0.004764
     0.018724   -0.020253    8.907829
   Hf   Nb   Zr   N    C    Cr   W 
   7   6   7  13  19   6   6
Direct configuration=     8
   0.99674758  0.99544685  0.98849762
   0.26044597  0.99750637  0.24793208
   0.24138610  0.49954167  0.24576542
   0.50075222  0.49994106  0.99791719
   0.50454837  0.23835687  0.74620319
   0.99816293  0.50152748  0.50142141
   0.49756165  0.76081618  0.74951526
   0.99491323  0.23159480  0.25915177
   0.75301457  0.74617254  0.00620693
   0.00409381  0.24879893  0.74294369
   0.75362015  0.25138991  0.50566812
   0.99745107  0.74500483  0.75637107
   0.24934506  0.49484544  0.75171847
   0.24830239  0.24413406  0.99526292
   0.50555938  0.25262221  0.25113679
   0.74090171  0.99136596  0.26342276
   0.75422365  0.25206010  0.99488387
   0.25222172  0.75432899  0.99897591
   0.25556122  0.24879442  0.50160210
   0.24921548  0.75132579  0.50178704
   0.25015981  0.24787229  0.24824612
   0.25032613  0.00077638  0.99868832
   0.00141009  0.24489276 -0.00030444
   0.75377300  0.25075799  0.25346351
   0.74708933  0.99601077 -0.00581173
   0.49954648  0.99403329  0.24913225
   0.99370933  0.49416161  0.25006419
   0.50726720  0.75774834 -0.00125134
   0.99137651  0.00298904  0.74352857
   0.75125506  0.25091483  0.74555693
   0.75448989 -0.00025044  0.51162484
   0.50857714  0.24225556  0.50194053
   0.51225761 -0.00019210  0.74909926
   0.00144382 -0.00159308  0.25139058
   0.50339665  0.24468392 -0.00329164
   0.25243437  0.74851999  0.24914154
   0.24255682  0.50130924  0.99606223
   0.99854497  0.74326160  0.00649499
   0.74768756  0.74147296  0.25420882
   0.76129471  0.50403613  0.00287724
   0.49726419  0.50641034  0.25070188
   0.25136876  0.24600643  0.74865198
   0.25552191  0.99972862  0.51158792
   0.00007786  0.24865981  0.50229054
   0.24501005  0.75657664  0.75136746
   0.25465528  0.50129870  0.49870789
   0.99234865  0.75730207  0.49930675
   0.99653626  0.49937938  0.75503254
   0.74817491  0.75587093  0.74803158
   0.74887674  0.49805339  0.50253447
   0.50629834  0.76229768  0.49220874
   0.50380677  0.50364497  0.74335664
   0.52628663  0.01086628  0.97455939
   0.99900941  0.52082660  0.97630947
   0.50065626  0.73166710  0.26165147
   0.22348193  0.01324368  0.74340926
   0.47266194  0.98721170  0.50290386
   0.72903376  0.96999320  0.77578705
   0.00435782  0.77143288  0.24937799
   0.73461614  0.51002561  0.25256848
   0.01925061  0.00425668  0.50631856
   0.50807319  0.52048174  0.49238490
   0.74908606  0.52120955  0.75735512
   0.74692216  0.73432022  0.49635179
HECN                                    
           1
     8.926514    0.024866   -0.013864
     0.030886    8.996177   -0.003507
     0.018120   -0.019020    8.909036
   Hf   Nb   Zr   N    C    Cr   W 
   7   6   7  13  19   6   6
Direct configuration=     9
   0.99689382  0.99543752  0.98852764
   0.26015787  0.99765164  0.24846175
   0.24109485  0.49949460  0.24578214
   0.50064391  0.50000947  0.99773369
   0.50449424  0.23905839  0.74601910
   0.99777504  0.50179273  0.50156306
   0.49762252  0.75992097  0.74893941
   0.99486692  0.23128673  0.25904729
   0.75301409  0.74629099  0.00601101
   0.00412133  0.24835053  0.74278048
   0.75385551  0.25121761  0.50550933
   0.99758034  0.74499981  0.75642921
   0.24937818  0.49471851  0.75160415
   0.24816405  0.24397243  0.99533946
   0.50556719  0.25294548  0.25127010
   0.74102618  0.99127900  0.26342738
   0.75428363  0.25202517  0.99492753
   0.25242349  0.75437363  0.99897702
   0.25566285  0.24907415  0.50157136
   0.24929545  0.75116600  0.50182729
   0.25014431  0.24775879  0.24819226
   0.24969226  0.00080004  0.99894877
   0.00126095  0.24477889 -0.00033598
   0.75370235  0.25088613  0.25323713
   0.74724999  0.99602435 -0.00611697
   0.49989586  0.99391444  0.24925437
   0.99381616  0.49474631  0.25046951
   0.50720208  0.75768480 -0.00151990
   0.99164750  0.00296113  0.74333129
   0.75128286  0.25148229  0.74554452
   0.75596511 -0.00009759  0.51124495
   0.50875696  0.24315242  0.50166630
   0.51305629 -0.00040648  0.74972827
   0.00126897 -0.00115799  0.25148851
   0.50323404  0.24446559 -0.00308831
   0.25245578  0.74843443  0.24921418
   0.24228689  0.50134842  0.99586778
   0.99861575  0.74343596  0.00667383
   0.74751202  0.74142696  0.25428310
   0.76142663  0.50400786  0.00296412
   0.49695089  0.50602541  0.25063602
   0.25133494  0.24584160  0.74872035
   0.25560501  0.99976690  0.51196179
   0.00019987  0.24867574  0.50226255
   0.24484505  0.75679704  0.75138891
   0.25476906  0.50137180  0.49892258
   0.99209739  0.75750610  0.49904385
   0.99679408  0.49925672  0.75504658
   0.74830066  0.75568624  0.74799625
   0.74914768  0.49776263  0.50274509
   0.50626970  0.76255328  0.49207761
   0.50412301  0.50386407  0.74296927
   0.52687992  0.01052298  0.97413041
   0.99889049  0.52152032  0.97612678
   0.50039543  0.73133478  0.26208653
   0.22221888  0.01320761  0.74303402
   0.47256059  0.98762452  0.50338196
   0.72819707  0.96964563  0.77622096
   0.00425400  0.77065219  0.24933150
   0.73440338  0.51014310  0.25229337
   0.01880010  0.00426240  0.50655062
   0.50828481  0.52004421  0.49198263
   0.74957605  0.52108022  0.75817175
   0.74670809  0.73414215  0.49612264
HECN                                    
           1
     8.940530    0.019147   -0.014435
     0.025239    8.972707   -0.002114
     0.017618   -0.017593    8.928946
   Hf   Nb   Zr   N    C    Cr   W 
   7   6   7  13  19   6   6
Direct configuration=    10
   0.99736573  0.99464574  0.99019716
   0.26041153  0.99720968  0.25025948
   0.24119722  0.49990124  0.24570990
   0.50034282  0.50049095  0.99806074
   0.50509756  0.24074508  0.74538491
   0.99693809  0.50239246  0.50155828
   0.49800683  0.75858822  0.74728311
   0.99442514  0.23192077  0.25937104
   0.75294094  0.74627868  0.00615110
   0.00377050  0.24788498  0.74162841
   0.75490965  0.25176584  0.50483861
   0.99816324  0.74528792  0.75519834
   0.24927834  0.49448041  0.75106783
   0.24749051  0.24371940  0.99550357
   0.50578048  0.25234837  0.25163670
   0.74099175  0.99067422  0.26427634
   0.75456473  0.25205471  0.99485975
   0.25344035  0.75458456  0.99909747
   0.25533035  0.24910616  0.50161294
   0.24926622  0.75122859  0.50160181
   0.24966328  0.24795386  0.24838455
   0.24809745  0.00060716  0.99970225
   0.00089738  0.24447482  0.00001102
   0.75415542  0.25083861  0.25294326
   0.74854211  0.99587452 -0.00443937
   0.49995536  0.99462326  0.25011279
   0.99352449  0.49584903  0.25075677
   0.50701625  0.75736403 -0.00155209
   0.99127767  0.00213282  0.74279988
   0.75164983  0.25298789  0.74578196
   0.75963001  0.00162652  0.51003351
   0.50901401  0.24580942  0.50142754
   0.51466427 -0.00042577  0.74890775
   0.00108804 -0.00260598  0.25163118
   0.50335610  0.24360834 -0.00323204
   0.25257010  0.74821572  0.24977664
   0.24160882  0.50133414  0.99562635
   0.99849215  0.74415312  0.00639570
   0.74720952  0.74123419  0.25320146
   0.76173852  0.50447720  0.00383195
   0.49579258  0.50538306  0.25011626
   0.25112557  0.24580830  0.74857890
   0.25561286  0.99978570  0.51275985
   0.00022077  0.24844307  0.50163391
   0.24419697  0.75704311  0.75092647
   0.25483353  0.50150071  0.49922464
   0.99119869  0.75772428  0.49924195
   0.99715902  0.49912916  0.75496636
   0.74863168  0.75591432  0.74791582
   0.74882875  0.49660172  0.50358151
   0.50589061  0.76297922  0.49101125
   0.50486630  0.50317611  0.74228103
   0.52702161  0.01039286  0.97336369
   0.99830080  0.52281425  0.97646131
   0.50010184  0.73013465  0.26385717
   0.22029779  0.01327420  0.74161115
   0.47288468  0.98852085  0.50625986
   0.72778483  0.96789588  0.77559593
   0.00373221  0.77139266  0.25041826
   0.73464163  0.51047060  0.25219040
   0.01656299  0.00420800  0.50548999
   0.50814081  0.51843789  0.49077799
   0.75181679  0.51983994  0.75915868
   0.74649430  0.73368836  0.49517924
HECN                                    
           1
     8.945532    0.017107   -0.014639
     0.023224    8.964332   -0.001617
     0.017439   -0.017083    8.936051
   Hf   Nb   Zr   N    C    Cr   W 
   7   6   7  13  19   6   6
Direct configuration=    11
   0.99753372  0.99436247  0.99079164
   0.26050185  0.99705151  0.25089958
   0.24123378  0.50004675  0.24568416
   0.50023566  0.50066313  0.99817715
   0.50531287  0.24134871  0.74515903
   0.99664004  0.50260684  0.50155652
   0.49814342  0.75811159  0.74669347
   0.99426789  0.23214749  0.25948626
   0.75291488  0.74627425  0.00620097
   0.00364537  0.24771840  0.74121824
   0.75528533  0.25196225  0.50459980
   0.99837095  0.74539120  0.75476010
   0.24924271  0.49439523  0.75087688
   0.24725049  0.24362871  0.99556200
   0.50585635  0.25213476  0.25176726
   0.74097936  0.99045780  0.26457864
   0.75466489  0.25206534  0.99483562
   0.25380268  0.75466025  0.99914036
   0.25521189  0.24911754  0.50162774
   0.24925582  0.75125099  0.50152152
   0.24949195  0.24802353  0.24845300
   0.24752923  0.00053775  0.99997050
   0.00076779  0.24436592  0.00013457
   0.75431682  0.25082173  0.25283864
   0.74900247  0.99582111 -0.00384203
   0.49997673  0.99487681  0.25041839
   0.99342082  0.49624347  0.25085898
   0.50694997  0.75724923 -0.00156354
   0.99114572  0.00183642  0.74261071
   0.75178092  0.25352661  0.74586643
   0.76093609  0.00224426  0.50960217
   0.50910618  0.24676009  0.50134239
   0.51523713 -0.00043226  0.74861565
   0.00102326 -0.00312408  0.25168205
   0.50339939  0.24330167 -0.00328317
   0.25261080  0.74813746  0.24997692
   0.24136723  0.50132889  0.99554038
   0.99844827  0.74440969  0.00629663
   0.74710168  0.74116522  0.25281635
   0.76184977  0.50464513  0.00414091
   0.49537975  0.50515302  0.24993122
   0.25105096  0.24579635  0.74852853
   0.25561567  0.99979238  0.51304399
   0.00022816  0.24835986  0.50141010
   0.24396612  0.75713102  0.75076180
   0.25485654  0.50154682  0.49933217
   0.99087855  0.75780213  0.49931245
   0.99728901  0.49908361  0.75493781
   0.74874966  0.75599600  0.74788718
   0.74871488  0.49618626  0.50387937
   0.50575561  0.76313158  0.49063154
   0.50513095  0.50293019  0.74203604
   0.52707204  0.01034638  0.97309071
   0.99809101  0.52327702  0.97658033
   0.49999702  0.72970511  0.26448765
   0.21961333  0.01329766  0.74110451
   0.47300041  0.98884144  0.50728447
   0.72763755  0.96726981  0.77537348
   0.00354650  0.77165739  0.25080514
   0.73472659  0.51058783  0.25215373
   0.01576592  0.00418808  0.50511231
   0.50808912  0.51786324  0.49034916
   0.75261487  0.51939666  0.75951018
   0.74641801  0.73352601  0.49484337
HECN                                    
           1
     8.928742    0.017077   -0.015178
     0.023139    8.967721   -0.004801
     0.016846   -0.020266    8.919193
   Hf   Nb   Zr   N    C    Cr   W 
   7   6   7  13  19   6   6
Direct configuration=    12
   0.99750821  0.99392152  0.99182525
   0.26133579  0.99698460  0.25229800
   0.24131366  0.49993042  0.24575232