       N       E                     dE             d eps       ncg     rms          rms(c)
DAV:   1     0.803235711556E+04    0.80324E+04   -0.22291E+05  9432   0.161E+03
DAV:   2     0.598539893866E+03   -0.74338E+04   -0.72055E+04  9408   0.677E+02
DAV:   3    -0.608440292558E+03   -0.12070E+04   -0.11224E+04 14136   0.246E+02
DAV:   4    -0.769524521622E+03   -0.16108E+03   -0.15587E+03 16656   0.106E+02
DAV:   5    -0.790468378337E+03   -0.20944E+02   -0.20516E+02 18648   0.335E+01    0.770E+01
RMM:   6    -0.778428927022E+03    0.12039E+02   -0.16968E+03 11523   0.112E+02    0.980E+01
RMM:   7    -0.677413287259E+03    0.10102E+03   -0.28937E+02 14361   0.447E+01    0.598E+01
RMM:   8    -0.645610113219E+03    0.31803E+02   -0.82967E+01 14394   0.236E+01    0.274E+01
RMM:   9    -0.636117747552E+03    0.94924E+01   -0.26900E+01 14941   0.128E+01    0.177E+01
RMM:  10    -0.635012399772E+03    0.11053E+01   -0.97871E+00 14941   0.775E+00    0.124E+01
RMM:  11    -0.634499626734E+03    0.51277E+00   -0.51339E+00 15076   0.494E+00    0.108E+01
RMM:  12    -0.634089585142E+03    0.41004E+00   -0.27430E+00 15221   0.397E+00    0.898E+00
RMM:  13    -0.634281825697E+03   -0.19224E+00   -0.24804E+00 14485   0.408E+00    0.103E+01
RMM:  14    -0.634109758754E+03    0.17207E+00   -0.27833E+00 14531   0.421E+00    0.583E+00
RMM:  15    -0.634114753075E+03   -0.49943E-02   -0.14052E+00 14863   0.268E+00    0.502E+00
RMM:  16    -0.633958269907E+03    0.15648E+00   -0.57606E-01 14433   0.211E+00    0.404E+00
RMM:  17    -0.633909262396E+03    0.49008E-01   -0.44209E-01 14555   0.154E+00    0.306E+00
RMM:  18    -0.633874362886E+03    0.34900E-01   -0.40767E-01 15100   0.121E+00    0.202E+00
RMM:  19    -0.633878174385E+03   -0.38115E-02   -0.25068E-01 15410   0.105E+00    0.153E+00
RMM:  20    -0.633890794396E+03   -0.12620E-01   -0.16883E-01 15446   0.726E-01    0.137E+00
RMM:  21    -0.633890775837E+03    0.18559E-04   -0.92997E-02 14872   0.615E-01    0.102E+00
RMM:  22    -0.633890898439E+03   -0.12260E-03   -0.60012E-02 14710   0.535E-01    0.150E+00
RMM:  23    -0.633880552519E+03    0.10346E-01   -0.43041E-02 14725   0.506E-01    0.549E-01
RMM:  24    -0.633881650034E+03   -0.10975E-02   -0.31859E-02 14931   0.305E-01    0.365E-01
RMM:  25    -0.633881328034E+03    0.32200E-03   -0.14023E-02 14701   0.259E-01    0.108E-01
RMM:  26    -0.633881873196E+03   -0.54516E-03   -0.86571E-03 14404   0.142E-01    0.939E-02
RMM:  27    -0.633882250657E+03   -0.37746E-03   -0.51113E-03 14238   0.115E-01    0.845E-02
RMM:  28    -0.633882464553E+03   -0.21390E-03   -0.31752E-03 13674   0.832E-02    0.540E-02
RMM:  29    -0.633882629003E+03   -0.16445E-03   -0.21898E-03 12665   0.674E-02    0.534E-02
RMM:  30    -0.633882722672E+03   -0.93669E-04   -0.14558E-03 12351   0.541E-02    0.245E-02
RMM:  31    -0.633882801422E+03   -0.78750E-04   -0.92926E-04 12341   0.479E-02    0.150E-02
RMM:  32    -0.633882850504E+03   -0.49082E-04   -0.61593E-04 11407   0.386E-02    0.119E-02
RMM:  33    -0.633882874228E+03   -0.23724E-04   -0.35496E-04 10798   0.316E-02    0.428E-03
RMM:  34    -0.633882900903E+03   -0.26676E-04   -0.29994E-04 10848   0.259E-02    0.366E-03
RMM:  35    -0.633882912480E+03   -0.11577E-04   -0.15056E-04  9634   0.234E-02    0.327E-03
RMM:  36    -0.633882921987E+03   -0.95064E-05   -0.11193E-04  9702   0.190E-02    0.255E-03
RMM:  37    -0.633882926604E+03   -0.46177E-05   -0.61853E-05  8842   0.179E-02
   1 F= -.63388293E+03 E0= -.63380209E+03  d E =-.633883E+03
       N       E                     dE             d eps       ncg     rms          rms(c)
DAV:   1    -0.633876319800E+03    0.66022E-02   -0.50977E-01 13728   0.411E+00    0.426E-01
RMM:   2    -0.633895326907E+03   -0.19007E-01   -0.13238E-01 14511   0.113E+00    0.111E+00
RMM:   3    -0.633886838667E+03    0.84882E-02   -0.16289E-02 12632   0.474E-01    0.602E-01
RMM:   4    -0.633885360086E+03    0.14786E-02   -0.50298E-03 14032   0.216E-01    0.357E-01
RMM:   5    -0.633885161840E+03    0.19825E-03   -0.17798E-03 13099   0.139E-01    0.330E-01
RMM:   6    -0.633884484825E+03    0.67701E-03   -0.10062E-03 13449   0.908E-02    0.136E-01
RMM:   7    -0.633884536051E+03   -0.51226E-04   -0.66437E-04 13071   0.709E-02    0.174E-01
RMM:   8    -0.633884514993E+03    0.21058E-04   -0.45901E-04 12058   0.706E-02    0.181E-01
RMM:   9    -0.633884358583E+03    0.15641E-03   -0.24747E-04 11160   0.529E-02    0.685E-02
RMM:  10    -0.633884352049E+03    0.65346E-05   -0.13630E-04 11107   0.311E-02    0.602E-02
RMM:  11    -0.633884339968E+03    0.12081E-04   -0.57283E-05  8293   0.246E-02    0.335E-02
RMM:  12    -0.633884342295E+03   -0.23274E-05   -0.43875E-05  7722   0.189E-02
   2 F= -.63388434E+03 E0= -.63380374E+03  d E =-.141569E-02
       N       E                     dE             d eps       ncg     rms          rms(c)
DAV:   1    -0.633883971982E+03    0.36799E-03   -0.27766E-02 13584   0.959E-01    0.104E-01
RMM:   2    -0.633885128550E+03   -0.11566E-02   -0.70232E-03 14277   0.266E-01    0.297E-01
RMM:   3    -0.633884541685E+03    0.58687E-03   -0.96501E-04 11389   0.120E-01    0.149E-01
RMM:   4    -0.633884445864E+03    0.95821E-04   -0.31392E-04 11939   0.602E-02    0.846E-02
RMM:   5    -0.633884434746E+03    0.11118E-04   -0.11491E-04  9367   0.366E-02    0.744E-02
RMM:   6    -0.633884402234E+03    0.32512E-04   -0.59425E-05  8590   0.244E-02    0.356E-02
RMM:   7    -0.633884404227E+03   -0.19938E-05   -0.35105E-05  6961   0.209E-02
   3 F= -.63388440E+03 E0= -.63380386E+03  d E =-.147762E-02
       N       E                     dE             d eps       ncg     rms          rms(c)
DAV:   1    -0.633882495025E+03    0.19072E-02   -0.10942E-01 12912   0.191E+00    0.204E-01
RMM:   2    -0.633886995342E+03   -0.45003E-02   -0.28435E-02 14352   0.529E-01    0.582E-01
RMM:   3    -0.633884768994E+03    0.22263E-02   -0.39021E-03 12406   0.240E-01    0.304E-01
RMM:   4    -0.633884381129E+03    0.38787E-03   -0.11359E-03 13378   0.111E-01    0.160E-01
RMM:   5    -0.633884325711E+03    0.55418E-04   -0.46536E-04 12567   0.648E-02    0.137E-01
RMM:   6    -0.633884218879E+03    0.10683E-03   -0.23401E-04 11781   0.463E-02    0.877E-02
RMM:   7    -0.633884206300E+03    0.12579E-04   -0.13674E-04 10207   0.385E-02    0.800E-02
RMM:   8    -0.633884222057E+03   -0.15757E-04   -0.11868E-04  9826   0.355E-02    0.921E-02
RMM:   9    -0.633884174758E+03    0.47299E-04   -0.64931E-05  8703   0.284E-02    0.276E-02
RMM:  10    -0.633884175957E+03   -0.11989E-05   -0.43183E-05  7901   0.180E-02
   4 F= -.63388418E+03 E0= -.63380374E+03  d E =-.124935E-02
       N       E                     dE             d eps       ncg     rms          rms(c)
DAV:   1    -0.633883316384E+03    0.85837E-03   -0.72778E-02 13056   0.155E+00    0.162E-01
RMM:   2    -0.633885956905E+03   -0.26405E-02   -0.18319E-02 14358   0.427E-01    0.418E-01
RMM:   3    -0.633884733917E+03    0.12230E-02   -0.23285E-03 12173   0.185E-01    0.219E-01
RMM:   4    -0.633884542178E+03    0.19174E-03   -0.71379E-04 13246   0.866E-02    0.134E-01
RMM:   5    -0.633884521627E+03    0.20551E-04   -0.25036E-04 11124   0.564E-02    0.129E-01
RMM:   6    -0.633884418128E+03    0.10350E-03   -0.13468E-04 10826   0.378E-02    0.513E-02
RMM:   7    -0.633884427007E+03   -0.88792E-05   -0.99122E-05  9450   0.305E-02
   5 F= -.63388443E+03 E0= -.63380390E+03  d E =-.150040E-02
       N       E                     dE             d eps       ncg     rms          rms(c)
DAV:   1    -0.633873589223E+03    0.10829E-01   -0.44781E-01 11904   0.430E+00    0.345E-01
RMM:   2    -0.633891496674E+03   -0.17907E-01   -0.13998E-01 14806   0.111E+00    0.960E-01
RMM:   3    -0.633886543529E+03    0.49531E-02   -0.17538E-02 12430   0.446E-01    0.538E-01
RMM:   4    -0.633885384333E+03    0.11592E-02   -0.40086E-03 13840   0.193E-01    0.266E-01
RMM:   5    -0.633885190456E+03    0.19388E-03   -0.11975E-03 13058   0.116E-01    0.233E-01
RMM:   6    -0.633884868297E+03    0.32216E-03   -0.62866E-04 12800   0.708E-02    0.124E-01
RMM:   7    -0.633884916407E+03   -0.48110E-04   -0.37093E-04 12204   0.584E-02    0.163E-01
RMM:   8    -0.633884865418E+03    0.50989E-04   -0.27807E-04 11356   0.560E-02    0.139E-01
RMM:   9    -0.633884769826E+03    0.95593E-04   -0.18515E-04 11211   0.432E-02    0.637E-02
RMM:  10    -0.633884754400E+03    0.15426E-04   -0.95749E-05 10443   0.281E-02    0.468E-02
RMM:  11    -0.633884744592E+03    0.98081E-05   -0.41890E-05  7969   0.210E-02
   6 F= -.63388474E+03 E0= -.63380432E+03  d E =-.317584E-03
       N       E                     dE             d eps       ncg     rms          rms(c)
DAV:   1    -0.633883585911E+03    0.11685E-02   -0.50220E-02 11952   0.144E+00    0.115E-01
RMM:   2    -0.633885579987E+03   -0.19941E-02   -0.15597E-02 14719   0.369E-01    0.319E-01
RMM:   3    -0.633885001525E+03    0.57846E-03   -0.18608E-03 12013   0.148E-01    0.179E-01
RMM:   4    -0.633884883499E+03    0.11803E-03   -0.46053E-04 12548   0.696E-02    0.999E-02
RMM:   5    -0.633884857058E+03    0.26441E-04   -0.13297E-04 10161   0.430E-02    0.849E-02
RMM:   6    -0.633884816917E+03    0.40141E-04   -0.63990E-05  8853   0.281E-02    0.488E-02
RMM:   7    -0.633884811395E+03    0.55217E-05   -0.35867E-05  6803   0.220E-02
   7 F= -.63388481E+03 E0= -.63380435E+03  d E =-.384388E-03
       N       E                     dE             d eps       ncg     rms          rms(c)
DAV:   1    -0.633876660597E+03    0.81563E-02   -0.29351E-01 10536   0.352E+00    0.263E-01
RMM:   2    -0.633887956481E+03   -0.11296E-01   -0.98611E-02 15365   0.876E-01    0.602E-01
RMM:   3    -0.633886354242E+03    0.16022E-02   -0.11590E-02 12213   0.349E-01    0.446E-01
RMM:   4    -0.633885596428E+03    0.75781E-03   -0.23097E-03 13740   0.155E-01    0.207E-01
RMM:   5    -0.633885513802E+03    0.82626E-04   -0.81835E-04 13240   0.889E-02    0.182E-01
RMM:   6    -0.633885321245E+03    0.19256E-03   -0.32938E-04 12445   0.537E-02    0.948E-02
RMM:   7    -0.633885326112E+03   -0.48667E-05   -0.18972E-04 11654   0.416E-02    0.101E-01
RMM:   8    -0.633885299901E+03    0.26211E-04   -0.19193E-04 11787   0.437E-02    0.855E-02
RMM:   9    -0.633885269322E+03    0.30578E-04   -0.11831E-04 11041   0.346E-02    0.528E-02
RMM:  10    -0.633885260625E+03    0.86968E-05   -0.60421E-05 10093   0.236E-02
   8 F= -.63388526E+03 E0= -.63380501E+03  d E =-.449230E-03
       N       E                     dE             d eps       ncg     rms          rms(c)
DAV:   1    -0.633884573262E+03    0.69606E-03   -0.24304E-02 11064   0.101E+00    0.777E-02
RMM:   2    -0.633885700785E+03   -0.11275E-02   -0.81889E-03 15211   0.256E-01    0.267E-01
RMM:   3    -0.633885378425E+03    0.32236E-03   -0.10254E-03 11039   0.105E-01    0.134E-01
RMM:   4    -0.633885304090E+03    0.74335E-04   -0.25045E-04 11994   0.542E-02    0.592E-02
RMM:   5    -0.633885300014E+03    0.40760E-05   -0.87949E-05  9861   0.305E-02
   9 F= -.63388530E+03 E0= -.63380513E+03  d E =-.488619E-03
       N       E                     dE             d eps       ncg     rms          rms(c)
DAV:   1    -0.633885224865E+03    0.79225E-04   -0.23132E-03 12168   0.311E-01    0.317E-02
RMM:   2    -0.633885412263E+03   -0.18740E-03   -0.83885E-04 13327   0.823E-02    0.144E-01
RMM:   3    -0.633885289402E+03    0.12286E-03   -0.10812E-04  7510   0.428E-02    0.350E-02
RMM:   4    -0.633885288842E+03    0.56038E-06   -0.26771E-05  6156   0.231E-02
  10 F= -.63388529E+03 E0= -.63380507E+03  d E =-.477447E-03
       N       E                     dE             d eps       ncg     rms          rms(c)
DAV:   1    -0.633885261978E+03    0.27424E-04   -0.10476E-03 13032   0.213E-01    0.232E-02
RMM:   2    -0.633885430511E+03   -0.16853E-03   -0.37879E-04 11192   0.594E-02    0.160E-01
RMM:   3    -0.633885288418E+03    0.14209E-03   -0.69932E-05  6836   0.371E-02    0.203E-02
RMM:   4    -0.633885287733E+03    0.68473E-06   -0.13434E-05  5754   0.156E-02
  11 F= -.63388529E+03 E0= -.63380510E+03  d E =-.476338E-03
       N       E                     dE             d eps       ncg     rms          rms(c)
DAV:   1    -0.633885282882E+03    0.55365E-05   -0.27115E-04 13344   0.109E-01    0.126E-02
RMM:   2    -0.633885307192E+03   -0.24310E-04   -0.79921E-05  7655   0.279E-02    0.545E-02
RMM:   3    -0.633885290128E+03    0.17064E-04   -0.15038E-05  5828   0.208E-02    0.224E-02
RMM:   4    -0.633885287694E+03    0.24339E-05   -0.57884E-06  4925   0.113E-02
  12 F= -.63388529E+03 E0= -.63380509E+03  d E =-.476298E-03
       N       E                     dE             d eps       ncg     rms          rms(c)
DAV:   1    -0.633885285807E+03    0.43211E-05   -0.10462E-04 11184   0.694E-02    0.869E-03
RMM:   2    -0.633885307250E+03   -0.21444E-04   -0.31449E-05  6263   0.201E-02    0.599E-02
RMM:   3    -0.633885288344E+03    0.18906E-04   -0.11316E-05  5414   0.194E-02    0.727E-03
RMM:   4    -0.633885288432E+03   -0.88447E-07   -0.29741E-06  4873   0.619E-03
  13 F= -.63388529E+03 E0= -.63380510E+03  d E =-.477037E-03
       N       E                     dE             d eps       ncg     rms          rms(c)
DAV:   1    -0.633882854688E+03    0.24337E-02   -0.95680E-02  9984   0.189E+00    0.106E-01
RMM:   2    -0.633885880512E+03   -0.30258E-02   -0.28354E-02 15305   0.467E-01    0.253E-01
RMM:   3    -0.633885737670E+03    0.14284E-03   -0.30739E-03 12062   0.177E-01    0.160E-01
RMM:   4    -0.633885693963E+03    0.43707E-04   -0.52922E-04 13399   0.769E-02    0.111E-01
RMM:   5    -0.633885637655E+03    0.56308E-04   -0.16780E-04 11829   0.456E-02    0.698E-02
RMM:   6    -0.633885614868E+03    0.22787E-04   -0.86795E-05 11050   0.270E-02    0.394E-02
RMM:   7    -0.633885620579E+03   -0.57112E-05   -0.55828E-05  9977   0.237E-02
  14 F= -.63388562E+03 E0= -.63380552E+03  d E =-.332146E-03
       N       E                     dE             d eps       ncg     rms          rms(c)
DAV:   1    -0.633878459328E+03    0.71555E-02   -0.25320E-01  9744   0.309E+00    0.178E-01
RMM:   2    -0.633886989732E+03   -0.85304E-02   -0.75826E-02 15347   0.765E-01    0.508E-01
RMM:   3    -0.633886058943E+03    0.93079E-03   -0.84298E-03 12642   0.292E-01    0.252E-01
RMM:   4    -0.633885974278E+03    0.84665E-04   -0.16112E-03 14099   0.123E-01    0.174E-01
RMM:   5    -0.633885805721E+03    0.16856E-03   -0.51178E-04 13565   0.670E-02    0.953E-02
RMM:   6    -0.633885785634E+03    0.20088E-04   -0.25275E-04 12429   0.421E-02    0.838E-02
RMM:   7    -0.633885787982E+03   -0.23488E-05   -0.16757E-04 11998   0.390E-02    0.809E-02
RMM:   8    -0.633885767607E+03    0.20375E-04   -0.16431E-04 12319   0.364E-02    0.624E-02
RMM:   9    -0.633885748427E+03    0.19180E-04   -0.82823E-05 11141   0.297E-02    0.337E-02
RMM:  10    -0.633885750073E+03   -0.16460E-05   -0.56959E-05 10204   0.203E-02
  15 F= -.63388575E+03 E0= -.63380584E+03  d E =-.461641E-03
       N       E                     dE             d eps       ncg     rms          rms(c)
DAV:   1    -0.633885384804E+03    0.36362E-03   -0.13612E-02 10512   0.713E-01    0.428E-02
RMM:   2    -0.633885851658E+03   -0.46685E-03   -0.39067E-03 15249   0.174E-01    0.133E-01
RMM:   3    -0.633885776459E+03    0.75199E-04   -0.41948E-04  9603   0.711E-02    0.578E-02
RMM:   4    -0.633885771961E+03    0.44974E-05   -0.66946E-05  7992   0.345E-02
  16 F= -.63388577E+03 E0= -.63380584E+03  d E =-.483529E-03
       N       E                     dE             d eps       ncg     rms          rms(c)
DAV:   1    -0.633885166950E+03    0.60951E-03   -0.23350E-02 10584   0.986E-01    0.875E-02
RMM:   2    -0.633886162507E+03   -0.99556E-03   -0.82373E-03 15054   0.257E-01    0.211E-01
RMM:   3    -0.633885970866E+03    0.19164E-03   -0.99592E-04 11337   0.102E-01    0.173E-01
RMM:   4    -0.633885833364E+03    0.13750E-03   -0.22327E-04 10740   0.576E-02    0.496E-02
RMM:   5    -0.633885834297E+03   -0.93291E-06   -0.72514E-05  8956   0.284E-02
  17 F= -.63388583E+03 E0= -.63380595E+03  d E =-.623355E-04
       N       E                     dE             d eps       ncg     rms          rms(c)
DAV:   1    -0.633885801273E+03    0.32091E-04   -0.12654E-03 14616   0.215E-01    0.343E-02
RMM:   2    -0.633885992135E+03   -0.19086E-03   -0.43365E-04 11301   0.692E-02    0.175E-01
RMM:   3    -0.633885824343E+03    0.16779E-03   -0.95290E-05  7319   0.434E-02    0.304E-02
RMM:   4    -0.633885819079E+03    0.52639E-05   -0.23604E-05  6035   0.208E-02
  18 F= -.63388582E+03 E0= -.63380594E+03  d E =-.471178E-04
       N       E                     dE             d eps       ncg     rms          rms(c)
DAV:   1    -0.633885709579E+03    0.11476E-03   -0.42372E-03 10872   0.412E-01    0.430E-02
RMM:   2    -0.633886038934E+03   -0.32936E-03   -0.16220E-03 14262   0.116E-01    0.190E-01
RMM:   3    -0.633885850555E+03    0.18838E-03   -0.20729E-04  8852   0.543E-02    0.661E-02
RMM:   4    -0.633885826053E+03    0.24503E-04   -0.58184E-05  7877   0.298E-02    0.277E-02
RMM:   5    -0.633885826071E+03   -0.18925E-07   -0.17205E-05  5934   0.184E-02
  19 F= -.63388583E+03 E0= -.63380598E+03  d E =-.541100E-04
       N       E                     dE             d eps       ncg     rms          rms(c)
DAV:   1    -0.633885847053E+03   -0.21001E-04   -0.24046E-03 12504   0.278E-01    0.500E-02
RMM:   2    -0.633885993503E+03   -0.14645E-03   -0.75704E-04 12890   0.100E-01    0.121E-01
RMM:   3    -0.633885892010E+03    0.10149E-03   -0.13333E-04  8209   0.449E-02    0.726E-02
RMM:   4    -0.633885866521E+03    0.25489E-04   -0.39520E-05  6595   0.278E-02    0.389E-02
RMM:   5    -0.633885868299E+03   -0.17778E-05   -0.20829E-05  5945   0.220E-02
  20 F= -.63388587E+03 E0= -.63380601E+03  d E =-.422275E-04
       N       E                     dE             d eps       ncg     rms          rms(c)
DAV:   1    -0.633885856282E+03    0.10239E-04   -0.33303E-03 12912   0.332E-01    0.584E-02
RMM:   2    -0.633886093803E+03   -0.23752E-03   -0.10326E-03 12767   0.119E-01    0.163E-01
RMM:   3    -0.633885915740E+03    0.17806E-03   -0.21691E-04  9134   0.566E-02    0.768E-02
RMM:   4    -0.633885885589E+03    0.30151E-04   -0.66643E-05  8377   0.300E-02    0.422E-02
RMM:   5    -0.633885885513E+03    0.76325E-07   -0.22709E-05  5997   0.204E-02
  21 F= -.63388589E+03 E0= -.63380603E+03  d E =-.594413E-04
       N       E                     dE             d eps       ncg     rms          rms(c)
DAV:   1    -0.633885767233E+03    0.11836E-03   -0.13198E-02 12576   0.659E-01    0.111E-01
RMM:   2    -0.633886634638E+03   -0.86741E-03   -0.41030E-03 13111   0.238E-01    0.306E-01
RMM:   3    -0.633886011320E+03    0.62332E-03   -0.84424E-04 11289   0.107E-01    0.149E-01
RMM:   4    -0.633885899214E+03    0.11211E-03   -0.25336E-04 12127   0.552E-02    0.801E-02
RMM:   5    -0.633885906966E+03   -0.77518E-05   -0.98748E-05  8666   0.386E-02
  22 F= -.63388591E+03 E0= -.63380606E+03  d E =-.808947E-04
       N       E                     dE             d eps       ncg     rms          rms(c)
DAV:   1    -0.633885827129E+03    0.72085E-04   -0.27782E-03 14712   0.328E-01    0.471E-02
RMM:   2    -0.633886122829E+03   -0.29570E-03   -0.92038E-04 13144   0.917E-02    0.203E-01
RMM:   3    -0.633885881524E+03    0.24131E-03   -0.16186E-04  8229   0.516E-02    0.524E-02
RMM:   4    -0.633885877188E+03    0.43359E-05   -0.50884E-05  7343   0.279E-02
  23 F= -.63388588E+03 E0= -.63380603E+03  d E =0.297779E-04
       N       E                     dE             d eps       ncg     rms          rms(c)
DAV:   1    -0.633885852283E+03    0.29241E-04   -0.14148E-03 14880   0.227E-01    0.393E-02
RMM:   2    -0.633886095651E+03   -0.24337E-03   -0.56833E-04 12743   0.700E-02    0.192E-01
RMM:   3    -0.633885882274E+03    0.21338E-03   -0.11535E-04  7755   0.467E-02    0.478E-02
RMM:   4    -0.633885872401E+03    0.98730E-05   -0.34479E-05  6665   0.226E-02
  24 F= -.63388587E+03 E0= -.63380602E+03  d E =0.345655E-04
       N       E                     dE             d eps       ncg     rms          rms(c)
DAV:   1    -0.633885879810E+03    0.24639E-05   -0.28532E-04 14736   0.999E-02    0.282E-02
RMM:   2    -0.633886070812E+03   -0.19100E-03   -0.18636E-04  8892   0.468E-02    0.179E-01
RMM:   3    -0.633885884438E+03    0.18637E-03   -0.60462E-05  6985   0.380E-02    0.289E-02
RMM:   4    -0.633885879905E+03    0.45336E-05   -0.10803E-05  5475   0.142E-02
  25 F= -.63388588E+03 E0= -.63380603E+03  d E =-.750407E-05
       N       E                     dE             d eps       ncg     rms          rms(c)
DAV:   1    -0.633885880221E+03    0.42177E-05   -0.19838E-03 13752   0.272E-01    0.348E-02
RMM:   2    -0.633886034499E+03   -0.15428E-03   -0.60873E-04 12844   0.793E-02    0.138E-01
RMM:   3    -0.633885919702E+03    0.11480E-03   -0.96366E-05  7452   0.405E-02    0.387E-02
RMM:   4    -0.633885916202E+03    0.35006E-05   -0.25616E-05  6163   0.234E-02
  26 F= -.63388592E+03 E0= -.63380605E+03  d E =-.438011E-04
       N       E                     dE             d eps       ncg     rms          rms(c)
DAV:   1    -0.633885842445E+03    0.77258E-04   -0.79816E-03 13368   0.539E-01    0.736E-02
RMM:   2    -0.633886485673E+03   -0.64323E-03   -0.26157E-03 14386   0.159E-01    0.286E-01
RMM:   3    -0.633886043339E+03    0.44233E-03   -0.42985E-04 10353   0.787E-02    0.117E-01
RMM:   4    -0.633885967171E+03    0.76168E-04   -0.13331E-04  9945   0.434E-02    0.441E-02
RMM:   5    -0.633885976528E+03   -0.93573E-05   -0.58939E-05  8036   0.265E-02
  27 F= -.63388598E+03 E0= -.63380614E+03  d E =-.104127E-03
       N       E                     dE             d eps       ncg     rms          rms(c)
DAV:   1    -0.633885447023E+03    0.52015E-03   -0.31239E-02 13104   0.107E+00    0.126E-01
RMM:   2    -0.633886940154E+03   -0.14931E-02   -0.91991E-03 14552   0.297E-01    0.384E-01
RMM:   3    -0.633886196673E+03    0.74348E-03   -0.13402E-03 11855   0.130E-01    0.205E-01
RMM:   4    -0.633886008987E+03    0.18769E-03   -0.40224E-04 12104   0.697E-02    0.974E-02
RMM:   5    -0.633886019870E+03   -0.10883E-04   -0.17958E-04 10459   0.448E-02    0.113E-01
RMM:   6    -0.633885936460E+03    0.83410E-04   -0.97412E-05  9961   0.315E-02    0.447E-02
RMM:   7    -0.633885948001E+03   -0.11541E-04   -0.59055E-05  8349   0.284E-02    0.681E-02
RMM:   8    -0.633885924271E+03    0.23730E-04   -0.34147E-05  7080   0.237E-02    0.233E-02
RMM:   9    -0.633885925696E+03   -0.14250E-05   -0.25165E-05  6888   0.184E-02
  28 F= -.63388593E+03 E0= -.63380602E+03  d E =-.532950E-04
       N       E                     dE             d eps       ncg     rms          rms(c)
DAV:   1    -0.633885846287E+03    0.77983E-04   -0.67683E-03 13128   0.496E-01    0.556E-02
RMM:   2    -0.633886141398E+03   -0.29511E-03   -0.19712E-03 14209   0.135E-01    0.164E-01
RMM:   3    -0.633886000398E+03    0.14100E-03   -0.24568E-04  9545   0.575E-02    0.882E-02
RMM:   4    -0.633885965110E+03    0.35288E-04   -0.67223E-05  7842   0.349E-02    0.427E-02
RMM:   5    -0.633885965942E+03   -0.83226E-06   -0.28729E-05  6117   0.228E-02
  29 F= -.63388597E+03 E0= -.63380609E+03  d E =-.935417E-04
       N       E                     dE             d eps       ncg     rms          rms(c)
DAV:   1    -0.633885917018E+03    0.48093E-04   -0.28815E-03 14040   0.330E-01    0.506E-02
RMM:   2    -0.633886285270E+03   -0.36825E-03   -0.98027E-04 12713   0.105E-01    0.235E-01
RMM:   3    -0.633885974834E+03    0.31044E-03   -0.20026E-04  8406   0.567E-02    0.559E-02
RMM:   4    -0.633885958723E+03    0.16110E-04   -0.48503E-05  7102   0.287E-02    0.375E-02
RMM:   5    -0.633885957508E+03    0.12156E-05   -0.20657E-05  5915   0.209E-02
  30 F= -.63388596E+03 E0= -.63380608E+03  d E =-.851073E-04
       N       E                     dE             d eps       ncg     rms          rms(c)
DAV:   1    -0.633885943693E+03    0.15031E-04   -0.20568E-03 13944   0.292E-01    0.394E-02
RMM:   2    -0.633886326670E+03   -0.38298E-03   -0.75944E-04 11598   0.903E-02    0.244E-01
RMM:   3    -0.633885994804E+03    0.33187E-03   -0.15648E-04  7945   0.529E-02    0.446E-02
RMM:   4    -0.633885984306E+03    0.10497E-04   -0.30228E-05  6167   0.230E-02    0.256E-02
RMM:   5    -0.633885984291E+03    0.15476E-07   -0.12501E-05  5441   0.189E-02
  31 F= -.63388598E+03 E0= -.63380611E+03  d E =-.267830E-04
