<?xml version="1.0" encoding="ISO-8859-1"?>
<modeling>
 <generator>
  <i name="program" type="string">vasp </i>
  <i name="version" type="string">5.4.4.18Apr17-6-g9f103f2a35  </i>
  <i name="subversion" type="string">(build Oct 18 2021 20:38:43) complex            parallel </i>
  <i name="platform" type="string">LinuxIFC </i>
  <i name="date" type="string">2024 06 24 </i>
  <i name="time" type="string">10:45:58 </i>
 </generator>
 <incar>
  <i type="string" name="SYSTEM">HECN</i>
  <i type="int" name="ISTART">     0</i>
  <i type="string" name="PREC">normal</i>
  <i type="string" name="ALGO">Fast</i>
  <i type="int" name="ICHARG">     2</i>
  <i type="int" name="NELM">    60</i>
  <i type="int" name="IBRION">     2</i>
  <i name="EDIFF">      0.00001000</i>
  <i name="EDIFFG">     -0.01000000</i>
  <i type="int" name="NSW">   100</i>
  <i type="int" name="ISIF">     3</i>
  <i name="ENCUT">    400.00000000</i>
  <i name="POTIM">      0.50000000</i>
  <i type="logical" name="LREAL"> F  </i>
  <i type="int" name="ISMEAR">     0</i>
  <i name="SIGMA">      0.10000000</i>
  <i type="logical" name="LWAVE"> F  </i>
  <i type="logical" name="LCHARG"> F  </i>
  <v type="int" name="KPOINT_BSE">    -1     0     0     0</v>
  <i type="int" name="NELM">    60</i>
 </incar>
 <structure name="primitive_cell" >
  <crystal>
   <varray name="basis" >
    <v>       8.56309453      -0.00049463      -0.01015781 </v>
    <v>       0.00530813       8.54269453      -0.00425980 </v>
    <v>       0.02058422      -0.01927246       8.59510632 </v>
   </varray>
   <i name="volume">    628.74947181 </i>
   <varray name="rec_basis" >
    <v>       0.11677988      -0.00007270      -0.00027984 </v>
    <v>       0.00000707       0.11705921       0.00026246 </v>
    <v>       0.00013802       0.00005793       0.11634507 </v>
   </varray>
  </crystal>
  <varray name="positions" >
   <v>       0.01429012      -0.01329377       0.01290004 </v>
   <v>       0.00429119       0.00049685       0.24650678 </v>
   <v>       0.00778494      -0.25007979       0.00202883 </v>
   <v>       0.25381077      -0.00006988       0.00478282 </v>
   <v>       0.00069462       0.24377280       0.00159135 </v>
   <v>      -0.00806654       0.00064368      -0.24805304 </v>
   <v>      -0.24913101       0.00312258       0.00095414 </v>
   <v>       0.00509203      -0.24766055       0.24769080 </v>
   <v>       0.26399804      -0.24408272       0.00081685 </v>
   <v>       0.25598255      -0.01352922       0.25415936 </v>
   <v>       0.00246972      -0.24304900      -0.24856531 </v>
   <v>       0.24960355       0.24428061       0.00403957 </v>
   <v>       0.23686262      -0.00198944      -0.25838279 </v>
   <v>      -0.25815820      -0.24698259       0.00132101 </v>
   <v>      -0.00194917       0.25669346       0.25100385 </v>
   <v>      -0.25657044      -0.00309926       0.25169998 </v>
   <v>       0.00979361       0.24178308      -0.24941381 </v>
   <v>      -0.25136398       0.24514548      -0.00670361 </v>
   <v>      -0.28468620      -0.01424335      -0.22213225 </v>
   <v>       0.25558061      -0.25113010       0.25037235 </v>
   <v>       0.25811711      -0.24053064      -0.24975010 </v>
   <v>       0.25316454       0.25099881       0.24997792 </v>
   <v>      -0.25833120      -0.24909689       0.25029785 </v>
   <v>       0.25624441       0.24185587      -0.24801630 </v>
   <v>      -0.25745930       0.24347582       0.24690498 </v>
   <v>      -0.25694737      -0.23923832      -0.25459652 </v>
   <v>      -0.25578706       0.24139797      -0.24672452 </v>
   <v>       0.00989711      -0.47756696      -0.02122530 </v>
   <v>       0.01465204       0.00605936       0.49182152 </v>
   <v>      -0.48736144       0.02014167      -0.01819383 </v>
   <v>       0.49567229      -0.00357861       0.23852857 </v>
   <v>       0.49946218      -0.24496861      -0.00537567 </v>
   <v>       0.00122418      -0.49668547       0.24791416 </v>
   <v>       0.24893219      -0.49961669       0.00851521 </v>
   <v>       0.00211404      -0.25270998       0.49751071 </v>
   <v>       0.49517486       0.00230482      -0.24568535 </v>
   <v>      -0.00182769       0.49994423      -0.24622876 </v>
   <v>       0.49889035       0.24792020      -0.00176726 </v>
   <v>       0.25943460      -0.00038252      -0.49505258 </v>
   <v>      -0.24914405      -0.00103358       0.49812023 </v>
   <v>      -0.24315657       0.49534405       0.00203493 </v>
   <v>       0.00655639       0.25493134      -0.49901785 </v>
   <v>       0.48870401      -0.23352399       0.27127650 </v>
   <v>       0.27090813      -0.48982457       0.24521305 </v>
   <v>       0.48361587       0.23750140      -0.24067129 </v>
   <v>       0.25053897      -0.24969043      -0.49918762 </v>
   <v>       0.49769503       0.24488586       0.24726273 </v>
   <v>       0.25367635      -0.49846814      -0.24510541 </v>
   <v>       0.25366162       0.25010131       0.49732520 </v>
   <v>      -0.25565112      -0.49074197      -0.24210712 </v>
   <v>      -0.24988914      -0.26074557       0.49668098 </v>
   <v>      -0.49897912      -0.24979380      -0.26143988 </v>
   <v>      -0.26718824      -0.49984221       0.24390027 </v>
   <v>      -0.24854180       0.25230278      -0.49233317 </v>
   <v>       0.47938293      -0.00586231       0.46984702 </v>
   <v>       0.49696244       0.48085602      -0.00342699 </v>
   <v>       0.00668419       0.49450154      -0.47848020 </v>
   <v>       0.49562277      -0.49166444       0.24453864 </v>
   <v>       0.24812215      -0.49962920       0.49402586 </v>
   <v>       0.49792299      -0.23972541      -0.49992941 </v>
   <v>       0.49820786       0.24243860      -0.49941698 </v>
   <v>      -0.24241533       0.49870709       0.49900759 </v>
   <v>      -0.49738364       0.49709773      -0.24637628 </v>
   <v>       0.49849300      -0.49457527      -0.49721231 </v>
  </varray>
 </structure>
 <varray name="primitive_index" >
  <v type="int" >        1 </v>
  <v type="int" >       34 </v>
  <v type="int" >       38 </v>
  <v type="int" >       22 </v>
  <v type="int" >       23 </v>
  <v type="int" >       29 </v>
  <v type="int" >       25 </v>
  <v type="int" >       59 </v>
  <v type="int" >       18 </v>
  <v type="int" >        2 </v>
  <v type="int" >       12 </v>
  <v type="int" >       14 </v>
  <v type="int" >       56 </v>
  <v type="int" >        9 </v>
  <v type="int" >        8 </v>
  <v type="int" >       16 </v>
  <v type="int" >       10 </v>
  <v type="int" >       17 </v>
  <v type="int" >       58 </v>
  <v type="int" >       36 </v>
  <v type="int" >       45 </v>
  <v type="int" >       21 </v>
  <v type="int" >       39 </v>
  <v type="int" >       42 </v>
  <v type="int" >       24 </v>
  <v type="int" >       49 </v>
  <v type="int" >       30 </v>
  <v type="int" >       54 </v>
  <v type="int" >       61 </v>
  <v type="int" >       53 </v>
  <v type="int" >       26 </v>
  <v type="int" >       28 </v>
  <v type="int" >       27 </v>
  <v type="int" >       37 </v>
  <v type="int" >       47 </v>
  <v type="int" >       33 </v>
  <v type="int" >       48 </v>
  <v type="int" >       35 </v>
  <v type="int" >       43 </v>
  <v type="int" >       31 </v>
  <v type="int" >       40 </v>
  <v type="int" >       44 </v>
  <v type="int" >       55 </v>
  <v type="int" >        3 </v>
  <v type="int" >        5 </v>
  <v type="int" >       20 </v>
  <v type="int" >       15 </v>
  <v type="int" >       13 </v>
  <v type="int" >       19 </v>
  <v type="int" >       63 </v>
  <v type="int" >       64 </v>
  <v type="int" >        7 </v>
  <v type="int" >       60 </v>
  <v type="int" >       11 </v>
  <v type="int" >       57 </v>
  <v type="int" >        4 </v>
  <v type="int" >        6 </v>
  <v type="int" >       41 </v>
  <v type="int" >       46 </v>
  <v type="int" >       51 </v>
  <v type="int" >       32 </v>
  <v type="int" >       50 </v>
  <v type="int" >       52 </v>
  <v type="int" >       62 </v>
 </varray>
 <kpoints>
  <generation param="Gamma">
   <v type="int" name="divisions">       3        3        3 </v>
   <v name="usershift">      0.00000000       0.00000000       0.00000000 </v>
   <v name="genvec1">      0.33333333       0.00000000       0.00000000 </v>
   <v name="genvec2">     -0.00000000       0.33333333       0.00000000 </v>
   <v name="genvec3">     -0.00000000      -0.00000000       0.33333333 </v>
   <v name="shift">      0.00000000       0.00000000       0.00000000 </v>
  </generation>
  <varray name="kpointlist" >
   <v>       0.00000000       0.00000000       0.00000000 </v>
   <v>       0.33333333       0.00000000      -0.00000000 </v>
   <v>       0.00000000       0.33333333      -0.00000000 </v>
   <v>       0.33333333       0.33333333      -0.00000000 </v>
   <v>      -0.33333333       0.33333333      -0.00000000 </v>
   <v>      -0.00000000      -0.00000000       0.33333333 </v>
   <v>       0.33333333      -0.00000000       0.33333333 </v>
   <v>      -0.33333333      -0.00000000       0.33333333 </v>
   <v>       0.00000000       0.33333333       0.33333333 </v>
   <v>       0.33333333       0.33333333       0.33333333 </v>
   <v>      -0.33333333       0.33333333       0.33333333 </v>
   <v>      -0.00000000      -0.33333333       0.33333333 </v>
   <v>       0.33333333      -0.33333333       0.33333333 </v>
   <v>      -0.33333333      -0.33333333       0.33333333 </v>
  </varray>
  <varray name="weights" >
   <v>       0.03703704 </v>
   <v>       0.07407407 </v>
   <v>       0.07407407 </v>
   <v>       0.07407407 </v>
   <v>       0.07407407 </v>
   <v>       0.07407407 </v>
   <v>       0.07407407 </v>
   <v>       0.07407407 </v>
   <v>       0.07407407 </v>
   <v>       0.07407407 </v>
   <v>       0.07407407 </v>
   <v>       0.07407407 </v>
   <v>       0.07407407 </v>
   <v>       0.07407407 </v>
  </varray>
 </kpoints>
 <parameters>
  <separator name="general" >
   <i type="string" name="SYSTEM">HECN</i>
   <i type="logical" name="LCOMPAT"> F  </i>
  </separator>
  <separator name="electronic" >
   <i type="string" name="PREC">normal</i>
   <i name="ENMAX">    400.00000000</i>
   <i name="ENAUG">    644.87300000</i>
   <i name="EDIFF">      0.00001000</i>
   <i type="int" name="IALGO">    68</i>
   <i type="int" name="IWAVPR">    11</i>
   <i type="int" name="NBANDS">   336</i>
   <i name="NELECT">    538.00000000</i>
   <i type="int" name="TURBO">     0</i>
   <i type="int" name="IRESTART">     0</i>
   <i type="int" name="NREBOOT">     0</i>
   <i type="int" name="NMIN">     0</i>
   <i name="EREF">      0.00000000</i>
   <separator name="electronic smearing" >
    <i type="int" name="ISMEAR">     0</i>
    <i name="SIGMA">      0.10000000</i>
    <i name="KSPACING">      0.50000000</i>
    <i type="logical" name="KGAMMA"> T  </i>
   </separator>
   <separator name="electronic projectors" >
    <i type="logical" name="LREAL"> F  </i>
    <v name="ROPT">      0.00000000      0.00000000      0.00000000      0.00000000      0.00000000      0.00000000      0.00000000</v>
    <i type="int" name="LMAXPAW">  -100</i>
    <i type="int" name="LMAXMIX">     2</i>
    <i type="logical" name="NLSPLINE"> F  </i>
   </separator>
   <separator name="electronic startup" >
    <i type="int" name="ISTART">     0</i>
    <i type="int" name="ICHARG">     2</i>
    <i type="int" name="INIWAV">     1</i>
   </separator>
   <separator name="electronic spin" >
    <i type="int" name="ISPIN">     1</i>
    <i type="logical" name="LNONCOLLINEAR"> F  </i>
    <v name="MAGMOM">      1.00000000      1.00000000      1.00000000      1.00000000      1.00000000      1.00000000      1.00000000      1.00000000      1.00000000      1.00000000      1.00000000      1.00000000      1.00000000      1.00000000      1.00000000      1.00000000      1.00000000      1.00000000      1.00000000      1.00000000
      1.00000000      1.00000000      1.00000000      1.00000000      1.00000000      1.00000000      1.00000000      1.00000000      1.00000000      1.00000000      1.00000000      1.00000000      1.00000000      1.00000000      1.00000000      1.00000000      1.00000000      1.00000000      1.00000000      1.00000000
      1.00000000      1.00000000      1.00000000      1.00000000      1.00000000      1.00000000      1.00000000      1.00000000      1.00000000      1.00000000      1.00000000      1.00000000      1.00000000      1.00000000      1.00000000      1.00000000      1.00000000      1.00000000      1.00000000      1.00000000
      1.00000000      1.00000000      1.00000000      1.00000000</v>
    <i name="NUPDOWN">     -1.00000000</i>
    <i type="logical" name="LSORBIT"> F  </i>
    <v name="SAXIS">      0.00000000      0.00000000      1.00000000</v>
    <i type="logical" name="LSPIRAL"> F  </i>
    <v name="QSPIRAL">      0.00000000      0.00000000      0.00000000</v>
    <i type="logical" name="LZEROZ"> F  </i>
   </separator>
   <separator name="electronic exchange-correlation" >
    <i type="logical" name="LASPH"> F  </i>
    <i type="logical" name="LMETAGGA"> F  </i>
   </separator>
   <separator name="electronic convergence" >
    <i type="int" name="NELM">    60</i>
    <i type="int" name="NELMDL">    -5</i>
    <i type="int" name="NELMIN">     2</i>
    <i name="ENINI">    400.00000000</i>
    <separator name="electronic convergence detail" >
     <i type="logical" name="LDIAG"> T  </i>
     <i type="logical" name="LSUBROT"> F  </i>
     <i name="WEIMIN">      0.00100000</i>
     <i name="EBREAK">      0.00000001</i>
     <i name="DEPER">      0.30000000</i>
     <i type="int" name="NRMM">     4</i>
     <i name="TIME">      0.40000000</i>
    </separator>
   </separator>
   <separator name="electronic mixer" >
    <i name="AMIX">      0.40000000</i>
    <i name="BMIX">      1.00000000</i>
    <i name="AMIN">      0.10000000</i>
    <i name="AMIX_MAG">      1.60000000</i>
    <i name="BMIX_MAG">      1.00000000</i>
    <separator name="electronic mixer details" >
     <i type="int" name="IMIX">     4</i>
     <i type="logical" name="MIXFIRST"> F  </i>
     <i type="int" name="MAXMIX">   -45</i>
     <i name="WC">    100.00000000</i>
     <i type="int" name="INIMIX">     1</i>
     <i type="int" name="MIXPRE">     1</i>
     <i type="int" name="MREMOVE">     5</i>
    </separator>
   </separator>
   <separator name="electronic dipolcorrection" >
    <i type="logical" name="LDIPOL"> F  </i>
    <i type="logical" name="LMONO"> F  </i>
    <i type="int" name="IDIPOL">     0</i>
    <i name="EPSILON">      1.00000000</i>
    <v name="DIPOL">   -100.00000000   -100.00000000   -100.00000000</v>
    <i name="EFIELD">      0.00000000</i>
   </separator>
  </separator>
  <separator name="grids" >
   <i type="int" name="NGX">    42</i>
   <i type="int" name="NGY">    42</i>
   <i type="int" name="NGZ">    42</i>
   <i type="int" name="NGXF">    84</i>
   <i type="int" name="NGYF">    84</i>
   <i type="int" name="NGZF">    84</i>
   <i type="logical" name="ADDGRID"> F  </i>
  </separator>
  <separator name="ionic" >
   <i type="int" name="NSW">   100</i>
   <i type="int" name="IBRION">     2</i>
   <i type="int" name="MDALGO">     0</i>
   <i type="int" name="ISIF">     3</i>
   <i name="PSTRESS">      0.00000000</i>
   <i name="EDIFFG">     -0.01000000</i>
   <i type="int" name="NFREE">     1</i>
   <i name="POTIM">      0.50000000</i>
   <i name="SMASS">     -3.00000000</i>
   <i name="SCALEE">      1.00000000</i>
  </separator>
  <separator name="ionic md" >
   <i name="TEBEG">      0.00010000</i>
   <i name="TEEND">      0.00010000</i>
   <i type="int" name="NBLOCK">     1</i>
   <i type="int" name="KBLOCK">   100</i>
   <i type="int" name="NPACO">   256</i>
   <i name="APACO">     16.00000000</i>
  </separator>
  <separator name="symmetry" >
   <i type="int" name="ISYM">     2</i>
   <i name="SYMPREC">      0.00001000</i>
  </separator>
  <separator name="dos" >
   <i type="int" name="LORBIT">     0</i>
   <v name="RWIGS">     -1.00000000     -1.00000000     -1.00000000     -1.00000000     -1.00000000     -1.00000000     -1.00000000</v>
   <i type="int" name="NEDOS">   301</i>
   <i name="EMIN">     10.00000000</i>
   <i name="EMAX">    -10.00000000</i>
   <i name="EFERMI">      0.00000000</i>
  </separator>
  <separator name="writing" >
   <i type="int" name="NWRITE">     2</i>
   <i type="logical" name="LWAVE"> F  </i>
   <i type="logical" name="LDOWNSAMPLE"> F  </i>
   <i type="logical" name="LCHARG"> F  </i>
   <i type="logical" name="LPARD"> F  </i>
   <i type="logical" name="LVTOT"> F  </i>
   <i type="logical" name="LVHAR"> F  </i>
   <i type="logical" name="LELF"> F  </i>
   <i type="logical" name="LOPTICS"> F  </i>
   <v name="STM">      0.00000000      0.00000000      0.00000000      0.00000000      0.00000000      0.00000000      0.00000000</v>
  </separator>
  <separator name="performance" >
   <i type="int" name="NPAR">    24</i>
   <i type="int" name="NSIM">     4</i>
   <i type="int" name="NBLK">    -1</i>
   <i type="logical" name="LPLANE"> T  </i>
   <i type="logical" name="LSCALAPACK"> T  </i>
   <i type="logical" name="LSCAAWARE"> F  </i>
   <i type="logical" name="LSCALU"> F  </i>
   <i type="logical" name="LASYNC"> F  </i>
   <i type="logical" name="LORBITALREAL"> F  </i>
  </separator>
  <separator name="miscellaneous" >
   <i type="int" name="IDIOT">     3</i>
   <i type="int" name="ISPECIAL">     0</i>
   <i type="logical" name="LMUSIC"> F  </i>
   <v name="POMASS">     50.94100000     92.91000000     47.88000000     14.00100000     12.01100000     51.99600000    183.85000000</v>
   <v name="DARWINR">      0.00000000      0.00000000      0.00000000      0.00000000      0.00000000      0.00000000      0.00000000</v>
   <v name="DARWINV">      1.00000000      1.00000000      1.00000000      1.00000000      1.00000000      1.00000000      1.00000000</v>
   <i type="logical" name="LCORR"> T  </i>
  </separator>
  <i type="logical" name="GGA_COMPAT"> T  </i>
  <i type="logical" name="LBERRY"> F  </i>
  <i type="int" name="ICORELEVEL">     0</i>
  <i type="logical" name="LDAU"> F  </i>
  <i type="int" name="I_CONSTRAINED_M">     0</i>
  <separator name="electronic exchange-correlation" >
   <i type="string" name="GGA">--</i>
   <i type="int" name="VOSKOWN">     0</i>
   <i type="logical" name="LHFCALC"> F  </i>
   <i type="string" name="PRECFOCK"></i>
   <i type="logical" name="LSYMGRAD"> F  </i>
   <i type="logical" name="LHFONE"> F  </i>
   <i type="logical" name="LRHFCALC"> F  </i>
   <i type="logical" name="LTHOMAS"> F  </i>
   <i type="logical" name="LMODELHF"> F  </i>
   <i name="ENCUT4O">     -1.00000000</i>
   <i type="int" name="EXXOEP">     0</i>
   <i type="int" name="FOURORBIT">     0</i>
   <i name="AEXX">      0.00000000</i>
   <i name="HFALPHA">      0.00000000</i>
   <i name="MCALPHA">      0.00000000</i>
   <i name="ALDAX">      1.00000000</i>
   <i name="AGGAX">      1.00000000</i>
   <i name="ALDAC">      1.00000000</i>
   <i name="AGGAC">      1.00000000</i>
   <i type="int" name="NKREDX">     1</i>
   <i type="int" name="NKREDY">     1</i>
   <i type="int" name="NKREDZ">     1</i>
   <i type="logical" name="SHIFTRED"> F  </i>
   <i type="logical" name="ODDONLY"> F  </i>
   <i type="logical" name="EVENONLY"> F  </i>
   <i type="int" name="LMAXFOCK">     0</i>
   <i type="int" name="NMAXFOCKAE">     0</i>
   <i type="logical" name="LFOCKAEDFT"> F  </i>
   <i name="HFSCREEN">      0.00000000</i>
   <i name="HFSCREENC">      0.00000000</i>
   <i type="int" name="NBANDSGWLOW">     0</i>
  </separator>
  <separator name="vdW DFT" >
   <i type="logical" name="LUSE_VDW"> F  </i>
   <i name="Zab_VDW">     -0.84910000</i>
   <i name="PARAM1">      0.12340000</i>
   <i name="PARAM2">      1.00000000</i>
   <i name="PARAM3">      0.00000000</i>
  </separator>
  <separator name="model GW" >
   <i type="int" name="MODEL_GW">     0</i>
   <i name="MODEL_EPS0">      5.89452630</i>
   <i name="MODEL_ALPHA">      1.00000000</i>
  </separator>
  <separator name="linear response parameters" >
   <i type="logical" name="LEPSILON"> F  </i>
   <i type="logical" name="LRPA"> F  </i>
   <i type="logical" name="LNABLA"> F  </i>
   <i type="logical" name="LVEL"> F  </i>
   <i type="int" name="KINTER">     0</i>
   <i name="CSHIFT">      0.10000000</i>
   <i name="OMEGAMAX">     -1.00000000</i>
   <i name="DEG_THRESHOLD">      0.00200000</i>
   <i name="RTIME">     -0.10000000</i>
   <i name="WPLASMAI">      0.00000000</i>
   <v name="DFIELD">      0.00000000      0.00000000      0.00000000</v>
   <v name="WPLASMA">      0.00000000      0.00000000      0.00000000      0.00000000      0.00000000      0.00000000      0.00000000      0.00000000      0.00000000</v>
  </separator>
  <separator name="orbital magnetization" >
   <i type="logical" name="NUCIND"> F  </i>
   <v name="MAGPOS">      0.00000000      0.00000000      0.00000000</v>
   <i type="logical" name="LNICSALL"> T  </i>
   <i type="logical" name="ORBITALMAG"> F  </i>
   <i type="logical" name="LMAGBLOCH"> F  </i>
   <i type="logical" name="LCHIMAG"> F  </i>
   <i type="logical" name="LGAUGE"> T  </i>
   <i type="int" name="MAGATOM">     0</i>
   <v name="MAGDIPOL">      0.00000000      0.00000000      0.00000000</v>
   <v name="AVECCONST">      0.00000000      0.00000000      0.00000000</v>
  </separator>
  <separator name="response functions" >
   <i type="logical" name="LADDER"> F  </i>
   <i type="logical" name="LRPAFORCE"> F  </i>
   <i type="logical" name="LFXC"> F  </i>
   <i type="logical" name="LHARTREE"> T  </i>
   <i type="int" name="IBSE">     0</i>
   <v type="int" name="KPOINT">    -1     0     0     0</v>
   <i type="logical" name="LTCTE"> F  </i>
   <i type="logical" name="LTETE"> F  </i>
   <i type="logical" name="LTRIPLET"> F  </i>
   <i type="logical" name="LFXCEPS"> F  </i>
   <i type="logical" name="LFXHEG"> F  </i>
   <i type="int" name="NATURALO">     2</i>
   <i type="logical" name="L2ORDER"> F  </i>
   <i type="logical" name="LMP2LT"> F  </i>
   <i type="logical" name="LUSEW"> F  </i>
   <i name="ENCUTGW">     -2.00000000</i>
   <i name="ENCUTGWSOFT">     -2.00000000</i>
   <i name="ENCUTLF">     -1.00000000</i>
   <i type="int" name="LMAXMP2">    -1</i>
   <i name="SCISSOR">      0.00000000</i>
   <i type="int" name="NOMEGA">     0</i>
   <i type="int" name="NOMEGAR">     0</i>
   <i type="int" name="NBANDSGW">    -1</i>
   <i type="int" name="NBANDSO">    -1</i>
   <i type="int" name="NBANDSV">    -1</i>
   <i type="int" name="NELM">    60</i>
   <i type="int" name="NELMHF">     1</i>
   <i type="int" name="DIM">     3</i>
   <i type="int" name="ANTIRES">     0</i>
   <i name="OMEGAMAX">    -30.00000000</i>
   <i name="OMEGAMIN">    -30.00000000</i>
   <i name="OMEGATL">   -200.00000000</i>
   <i type="int" name="OMEGAGRID">   140</i>
   <i name="CSHIFT">     -0.10000000</i>
   <i type="logical" name="SELFENERGY"> F  </i>
   <i type="logical" name="LSPECTRAL"> F  </i>
   <i type="logical" name="LSPECTRALGW"> F  </i>
   <i type="logical" name="LSINGLES"> F  </i>
   <i type="logical" name="LFERMIGW"> F  </i>
   <i type="logical" name="ODDONLYGW"> F  </i>
   <i type="logical" name="EVENONLYGW"> F  </i>
   <i type="int" name="NKREDLFX">     1</i>
   <i type="int" name="NKREDLFY">     1</i>
   <i type="int" name="NKREDLFZ">     1</i>
   <i type="int" name="MAXMEM">  2800</i>
   <i type="int" name="TELESCOPE">     0</i>
   <i type="int" name="TAUPAR">     1</i>
   <i type="int" name="OMEGAPAR">    -1</i>
   <i name="LAMBDA">      1.00000000</i>
  </separator>
  <separator name="External order field" >
   <i name="OFIELD_KAPPA">      0.00000000</i>
   <v name="OFIELD_K">      0.00000000      0.00000000      0.00000000</v>
   <i name="OFIELD_Q6_NEAR">      0.00000000</i>
   <i name="OFIELD_Q6_FAR">      0.00000000</i>
   <i name="OFIELD_A">      0.00000000</i>
  </separator>
 </parameters>
 <atominfo>
  <atoms>      64 </atoms>
  <types>       7 </types>
  <array name="atoms" >
   <dimension dim="1">ion</dimension>
   <field type="string">element</field>
   <field type="int">atomtype</field>
   <set>
    <rc><c>V </c><c>   1</c></rc>
    <rc><c>V </c><c>   1</c></rc>
    <rc><c>V </c><c>   1</c></rc>
    <rc><c>V </c><c>   1</c></rc>
    <rc><c>V </c><c>   1</c></rc>
    <rc><c>V </c><c>   1</c></rc>
    <rc><c>V </c><c>   1</c></rc>
    <rc><c>Nb</c><c>   2</c></rc>
    <rc><c>Nb</c><c>   2</c></rc>
    <rc><c>Nb</c><c>   2</c></rc>
    <rc><c>Nb</c><c>   2</c></rc>
    <rc><c>Nb</c><c>   2</c></rc>
    <rc><c>Nb</c><c>   2</c></rc>
    <rc><c>Ti</c><c>   3</c></rc>
    <rc><c>Ti</c><c>   3</c></rc>
    <rc><c>Ti</c><c>   3</c></rc>
    <rc><c>Ti</c><c>   3</c></rc>
    <rc><c>Ti</c><c>   3</c></rc>
    <rc><c>Ti</c><c>   3</c></rc>
    <rc><c>Ti</c><c>   3</c></rc>
    <rc><c>N </c><c>   4</c></rc>
    <rc><c>N </c><c>   4</c></rc>
    <rc><c>N </c><c>   4</c></rc>
    <rc><c>N </c><c>   4</c></rc>
    <rc><c>N </c><c>   4</c></rc>
    <rc><c>N </c><c>   4</c></rc>
    <rc><c>N </c><c>   4</c></rc>
    <rc><c>N </c><c>   4</c></rc>
    <rc><c>N </c><c>   4</c></rc>
    <rc><c>N </c><c>   4</c></rc>
    <rc><c>N </c><c>   4</c></rc>
    <rc><c>N </c><c>   4</c></rc>
    <rc><c>N </c><c>   4</c></rc>
    <rc><c>C </c><c>   5</c></rc>
    <rc><c>C </c><c>   5</c></rc>
    <rc><c>C </c><c>   5</c></rc>
    <rc><c>C </c><c>   5</c></rc>
    <rc><c>C </c><c>   5</c></rc>
    <rc><c>C </c><c>   5</c></rc>
    <rc><c>C </c><c>   5</c></rc>
    <rc><c>C </c><c>   5</c></rc>
    <rc><c>C </c><c>   5</c></rc>
    <rc><c>C </c><c>   5</c></rc>
    <rc><c>C </c><c>   5</c></rc>
    <rc><c>C </c><c>   5</c></rc>
    <rc><c>C </c><c>   5</c></rc>
    <rc><c>C </c><c>   5</c></rc>
    <rc><c>C </c><c>   5</c></rc>
    <rc><c>C </c><c>   5</c></rc>
    <rc><c>C </c><c>   5</c></rc>
    <rc><c>C </c><c>   5</c></rc>
    <rc><c>C </c><c>   5</c></rc>
    <rc><c>Cr</c><c>   6</c></rc>
    <rc><c>Cr</c><c>   6</c></rc>
    <rc><c>Cr</c><c>   6</c></rc>
    <rc><c>Cr</c><c>   6</c></rc>
    <rc><c>Cr</c><c>   6</c></rc>
    <rc><c>Cr</c><c>   6</c></rc>
    <rc><c>W </c><c>   7</c></rc>
    <rc><c>W </c><c>   7</c></rc>
    <rc><c>W </c><c>   7</c></rc>
    <rc><c>W </c><c>   7</c></rc>
    <rc><c>W </c><c>   7</c></rc>
    <rc><c>W </c><c>   7</c></rc>
   </set>
  </array>
  <array name="atomtypes" >
   <dimension dim="1">type</dimension>
   <field type="int">atomspertype</field>
   <field type="string">element</field>
   <field>mass</field>
   <field>valence</field>
   <field type="string">pseudopotential</field>
   <set>
    <rc><c>   7</c><c>V </c><c>     50.94100000</c><c>     13.00000000</c><c> PAW_PBE V_sv 07Sep2000                 </c></rc>
    <rc><c>   6</c><c>Nb</c><c>     92.91000000</c><c>     13.00000000</c><c> PAW_PBE Nb_sv 17Jan2003                </c></rc>
    <rc><c>   7</c><c>Ti</c><c>     47.88000000</c><c>     12.00000000</c><c> PAW_PBE Ti_sv 07Sep2000                </c></rc>
    <rc><c>  13</c><c>N </c><c>     14.00100000</c><c>      5.00000000</c><c> PAW_PBE N 08Apr2002                    </c></rc>
    <rc><c>  19</c><c>C </c><c>     12.01100000</c><c>      4.00000000</c><c> PAW_PBE C 08Apr2002                    </c></rc>
    <rc><c>   6</c><c>Cr</c><c>     51.99600000</c><c>     12.00000000</c><c> PAW_PBE Cr_pv 07Sep2000                </c></rc>
    <rc><c>   6</c><c>W </c><c>    183.85000000</c><c>     12.00000000</c><c> PAW_PBE W_pv 06Sep2000                 </c></rc>
   </set>
  </array>
 </atominfo>
 <structure name="initialpos" >
  <crystal>
   <varray name="basis" >
    <v>       8.56309453      -0.00049463      -0.01015781 </v>
    <v>       0.00530813       8.54269453      -0.00425980 </v>
    <v>       0.02058422      -0.01927246       8.59510632 </v>
   </varray>
   <i name="volume">    628.74947181 </i>
   <varray name="rec_basis" >
    <v>       0.11677988      -0.00007270      -0.00027984 </v>
    <v>       0.00000707       0.11705921       0.00026246 </v>
    <v>       0.00013802       0.00005793       0.11634507 </v>
   </varray>
  </crystal>
  <varray name="positions" >
   <v>       0.01429012       0.98670623       0.01290004 </v>
   <v>       0.25598255       0.98647078       0.25415936 </v>
   <v>       0.27090813       0.51017543       0.24521305 </v>
   <v>       0.49696244       0.48085602       0.99657301 </v>
   <v>       0.48361587       0.23750140       0.75932871 </v>
   <v>       0.00668419       0.49450154       0.52151980 </v>
   <v>       0.50102088       0.75020620       0.73856012 </v>
   <v>       0.99805083       0.25669346       0.25100385 </v>
   <v>       0.74184180       0.75301741       0.00132101 </v>
   <v>       0.00979361       0.24178308       0.75058619 </v>
   <v>       0.75145820       0.25230278       0.50766683 </v>
   <v>       0.00246972       0.75695100       0.75143469 </v>
   <v>       0.25367635       0.50153186       0.75489459 </v>
   <v>       0.24960355       0.24428061       0.00403957 </v>
   <v>       0.49769503       0.24488586       0.24726273 </v>
   <v>       0.74342956       0.99690074       0.25169998 </v>
   <v>       0.74863602       0.24514548       0.99329639 </v>
   <v>       0.26399804       0.75591728       0.00081685 </v>
   <v>       0.25366162       0.25010131       0.49732520 </v>
   <v>       0.25053897       0.75030957       0.50081238 </v>
   <v>       0.25316454       0.25099881       0.24997792 </v>
   <v>       0.25381077       0.99993012       0.00478282 </v>
   <v>       0.00069462       0.24377280       0.00159135 </v>
   <v>       0.74254070       0.24347582       0.24690498 </v>
   <v>       0.75086899       0.00312258       0.00095414 </v>
   <v>       0.49567229       0.99642139       0.23852857 </v>
   <v>       0.00122418       0.50331453       0.24791416 </v>
   <v>       0.49946218       0.75503139       0.99462433 </v>
   <v>       0.99193346       0.00064368       0.75194696 </v>
   <v>       0.74421294       0.24139797       0.75327548 </v>
   <v>       0.75085595       0.99896642       0.49812023 </v>
   <v>       0.49820786       0.24243860       0.50058302 </v>
   <v>       0.49517486       0.00230482       0.75431465 </v>
   <v>       0.00429119       0.00049685       0.24650678 </v>
   <v>       0.49889035       0.24792020       0.99823274 </v>
   <v>       0.25558061       0.74886990       0.25037235 </v>
   <v>       0.24893219       0.50038331       0.00851521 </v>
   <v>       0.00778494       0.74992021       0.00202883 </v>
   <v>       0.74166880       0.75090311       0.25029785 </v>
   <v>       0.75684343       0.49534405       0.00203493 </v>
   <v>       0.49562277       0.50833556       0.24453864 </v>
   <v>       0.25624441       0.24185587       0.75198370 </v>
   <v>       0.25943460       0.99961748       0.50494742 </v>
   <v>       0.00655639       0.25493134       0.50098215 </v>
   <v>       0.25811711       0.75946936       0.75024990 </v>
   <v>       0.24812215       0.50037080       0.49402586 </v>
   <v>       0.00211404       0.74729002       0.49751071 </v>
   <v>       0.99817231       0.49994423       0.75377124 </v>
   <v>       0.74305263       0.76076168       0.74540348 </v>
   <v>       0.75758467       0.49870709       0.49900759 </v>
   <v>       0.49792299       0.76027459       0.50007059 </v>
   <v>       0.50261636       0.49709773       0.75362372 </v>
   <v>       0.51263856       0.02014167       0.98180617 </v>
   <v>       0.00989711       0.52243304       0.97877470 </v>
   <v>       0.48870401       0.76647601       0.27127650 </v>
   <v>       0.23686262       0.99801056       0.74161721 </v>
   <v>       0.47938293       0.99413769       0.46984702 </v>
   <v>       0.71531380       0.98575665       0.77786775 </v>
   <v>       0.00509203       0.75233945       0.24769080 </v>
   <v>       0.73281176       0.50015779       0.24390027 </v>
   <v>       0.01465204       0.00605936       0.49182152 </v>
   <v>       0.49849300       0.50542473       0.50278769 </v>
   <v>       0.74434888       0.50925803       0.75789288 </v>
   <v>       0.75011086       0.73925443       0.49668098 </v>
  </varray>
 </structure>
 <calculation>
  <scstep>
   <time name="dav">   18.35   18.43</time>
   <time name="total">   18.38   18.47</time>
   <energy>
    <i name="alphaZ">   4564.59231773 </i>
    <i name="ewald"> -48927.29690891 </i>
    <i name="hartreedc"> -10668.08488648 </i>
    <i name="XCdc">   2363.82605404 </i>
    <i name="pawpsdc">  37588.01130483 </i>
    <i name="pawaedc"> -37697.18207884 </i>
    <i name="eentropy">     -0.08853277 </i>
    <i name="bandstr">   3026.58320580 </i>
    <i name="atom">  57781.99664017 </i>
    <i name="e_fr_energy">   8032.35711556 </i>
    <i name="e_wo_entrp">   8032.44564833 </i>
    <i name="e_0_energy">   8032.40138195 </i>
   </energy>
  </scstep>
  <scstep>
   <time name="dav">   19.27   19.29</time>
   <time name="total">   19.27   19.29</time>
   <energy>
    <i name="e_fr_energy">    598.53989387 </i>
    <i name="e_wo_entrp">    598.67408261 </i>
    <i name="e_0_energy">    598.60698824 </i>
   </energy>
  </scstep>
  <scstep>
   <time name="dav">   27.00   27.04</time>
   <time name="total">   27.00   27.04</time>
   <energy>
    <i name="e_fr_energy">   -608.44029256 </i>
    <i name="e_wo_entrp">   -608.31901094 </i>
    <i name="e_0_energy">   -608.37965175 </i>
   </energy>
  </scstep>
  <scstep>
   <time name="dav">   31.08   31.11</time>
   <time name="total">   31.08   31.11</time>
   <energy>
    <i name="e_fr_energy">   -769.52452162 </i>
    <i name="e_wo_entrp">   -769.42603754 </i>
    <i name="e_0_energy">   -769.47527958 </i>
   </energy>
  </scstep>
  <scstep>
   <time name="dav">   34.27   34.37</time>
   <time name="total">   34.46   34.57</time>
   <energy>
    <i name="e_fr_energy">   -790.46837834 </i>
    <i name="e_wo_entrp">   -790.36820434 </i>
    <i name="e_0_energy">   -790.41829134 </i>
   </energy>
  </scstep>
  <scstep>
   <time name="diag">    1.61    1.62</time>
   <time name="diis">   15.06   15.09</time>
   <time name="orth">    0.47    0.47</time>
   <time name="total">   17.35   17.39</time>
   <energy>
    <i name="e_fr_energy">   -778.42892702 </i>
    <i name="e_wo_entrp">   -778.30239650 </i>
    <i name="e_0_energy">   -778.36566176 </i>
   </energy>
  </scstep>
  <scstep>
   <time name="diag">    1.61    1.61</time>
   <time name="diis">   19.14   19.15</time>
   <time name="orth">    0.46    0.46</time>
   <time name="total">   21.41   21.42</time>
   <energy>
    <i name="e_fr_energy">   -677.41328726 </i>
    <i name="e_wo_entrp">   -677.25216803 </i>
    <i name="e_0_energy">   -677.33272764 </i>
   </energy>
  </scstep>
  <scstep>
   <time name="diag">    1.59    1.59</time>
   <time name="diis">   18.73   18.81</time>
   <time name="orth">    0.46    0.46</time>
   <time name="total">   20.98   21.07</time>
   <energy>
    <i name="e_fr_energy">   -645.61011322 </i>
    <i name="e_wo_entrp">   -645.45262891 </i>
    <i name="e_0_energy">   -645.53137106 </i>
   </energy>
  </scstep>
  <scstep>
   <time name="diag">    1.60    1.60</time>
   <time name="diis">   19.92   19.94</time>
   <time name="orth">    0.46    0.46</time>
   <time name="total">   22.17   22.19</time>
   <energy>
    <i name="e_fr_energy">   -636.11774755 </i>
    <i name="e_wo_entrp">   -635.95772667 </i>
    <i name="e_0_energy">   -636.03773711 </i>
   </energy>
  </scstep>
  <scstep>
   <time name="diag">    1.60    1.60</time>
   <time name="diis">   20.07   20.10</time>
   <time name="orth">    0.47    0.47</time>
   <time name="total">   22.34   22.37</time>
   <energy>
    <i name="e_fr_energy">   -635.01239977 </i>
    <i name="e_wo_entrp">   -634.86267994 </i>
    <i name="e_0_energy">   -634.93753985 </i>
   </energy>
  </scstep>
  <scstep>
   <time name="diag">    1.60    1.60</time>
   <time name="diis">   19.93   19.99</time>
   <time name="orth">    0.48    0.49</time>
   <time name="total">   22.21   22.28</time>
   <energy>
    <i name="e_fr_energy">   -634.49962673 </i>
    <i name="e_wo_entrp">   -634.34499681 </i>
    <i name="e_0_energy">   -634.42231177 </i>
   </energy>
  </scstep>
  <scstep>
   <time name="diag">    1.61    1.62</time>
   <time name="diis">   20.05   20.06</time>
   <time name="orth">    0.47    0.47</time>
   <time name="total">   22.33   22.36</time>
   <energy>
    <i name="e_fr_energy">   -634.08958514 </i>
    <i name="e_wo_entrp">   -633.92740152 </i>
    <i name="e_0_energy">   -634.00849333 </i>
   </energy>
  </scstep>
  <scstep>
   <time name="diag">    1.58    1.61</time>
   <time name="diis">   18.91   19.46</time>
   <time name="orth">    0.45    0.46</time>
   <time name="total">   21.14   21.73</time>
   <energy>
    <i name="e_fr_energy">   -634.28182570 </i>
    <i name="e_wo_entrp">   -634.11852326 </i>
    <i name="e_0_energy">   -634.20017448 </i>
   </energy>
  </scstep>
  <scstep>
   <time name="diag">    1.58    1.61</time>
   <time name="diis">   18.75   19.27</time>
   <time name="orth">    0.47    0.48</time>
   <time name="total">   21.00   21.56</time>
   <energy>
    <i name="e_fr_energy">   -634.10975875 </i>
    <i name="e_wo_entrp">   -633.95064408 </i>
    <i name="e_0_energy">   -634.03020142 </i>
   </energy>
  </scstep>
  <scstep>
   <time name="diag">    1.58    1.61</time>
   <time name="diis">   19.27   19.80</time>
   <time name="orth">    0.45    0.46</time>
   <time name="total">   21.50   22.07</time>
   <energy>
    <i name="e_fr_energy">   -634.11475308 </i>
    <i name="e_wo_entrp">   -633.94901897 </i>
    <i name="e_0_energy">   -634.03188602 </i>
   </energy>
  </scstep>
  <scstep>
   <time name="diag">    1.60    1.60</time>
   <time name="diis">   19.20   19.20</time>
   <time name="orth">    0.46    0.46</time>
   <time name="total">   21.46   21.46</time>
   <energy>
    <i name="e_fr_energy">   -633.95826991 </i>
    <i name="e_wo_entrp">   -633.79767353 </i>
    <i name="e_0_energy">   -633.87797172 </i>
   </energy>
  </scstep>
  <scstep>
   <time name="diag">    1.62    1.65</time>
   <time name="diis">   19.34   19.91</time>
   <time name="orth">    0.45    0.46</time>
   <time name="total">   21.62   22.22</time>
   <energy>
    <i name="e_fr_energy">   -633.90926240 </i>
    <i name="e_wo_entrp">   -633.74819159 </i>
    <i name="e_0_energy">   -633.82872699 </i>
   </energy>
  </scstep>
  <scstep>
   <time name="diag">    1.60    1.60</time>
   <time name="diis">   19.71   19.73</time>
   <time name="orth">    0.46    0.46</time>
   <time name="total">   21.97   22.00</time>
   <energy>
    <i name="e_fr_energy">   -633.87436289 </i>
    <i name="e_wo_entrp">   -633.71240610 </i>
    <i name="e_0_energy">   -633.79338450 </i>
   </energy>
  </scstep>
  <scstep>
   <time name="diag">    1.61    1.61</time>
   <time name="diis">   20.06   20.09</time>
   <time name="orth">    0.46    0.46</time>
   <time name="total">   22.33   22.36</time>
   <energy>
    <i name="e_fr_energy">   -633.87817439 </i>
    <i name="e_wo_entrp">   -633.71685477 </i>
    <i name="e_0_energy">   -633.79751458 </i>
   </energy>
  </scstep>
  <scstep>
   <time name="diag">    1.60    1.60</time>
   <time name="diis">   20.47   20.49</time>
   <time name="orth">    0.46    0.46</time>
   <time name="total">   22.73   22.76</time>
   <energy>
    <i name="e_fr_energy">   -633.89079440 </i>
    <i name="e_wo_entrp">   -633.72816616 </i>
    <i name="e_0_energy">   -633.80948028 </i>
   </energy>
  </scstep>
  <scstep>
   <time name="diag">    1.59    1.62</time>
   <time name="diis">   19.13   19.68</time>
   <time name="orth">    0.45    0.46</time>
   <time name="total">   21.37   21.96</time>
   <energy>
    <i name="e_fr_energy">   -633.89077584 </i>
    <i name="e_wo_entrp">   -633.72935393 </i>
    <i name="e_0_energy">   -633.81006488 </i>
   </energy>
  </scstep>
  <scstep>
   <time name="diag">    1.59    1.62</time>
   <time name="diis">   18.91   19.48</time>
   <time name="orth">    0.46    0.46</time>
   <time name="total">   21.15   21.76</time>
   <energy>
    <i name="e_fr_energy">   -633.89089844 </i>
    <i name="e_wo_entrp">   -633.73082008 </i>
    <i name="e_0_energy">   -633.81085926 </i>
   </energy>
  </scstep>
  <scstep>
   <time name="diag">    1.60    1.60</time>
   <time name="diis">   19.80   19.80</time>
   <time name="orth">    0.46    0.46</time>
   <time name="total">   22.05   22.06</time>
   <energy>
    <i name="e_fr_energy">   -633.88055252 </i>
    <i name="e_wo_entrp">   -633.71893205 </i>
    <i name="e_0_energy">   -633.79974229 </i>
   </energy>
  </scstep>
  <scstep>
   <time name="diag">    1.60    1.60</time>
   <time name="diis">   19.84   19.85</time>
   <time name="orth">    0.46    0.46</time>
   <time name="total">   22.10   22.11</time>
   <energy>
    <i name="e_fr_energy">   -633.88165003 </i>
    <i name="e_wo_entrp">   -633.72017119 </i>
    <i name="e_0_energy">   -633.80091061 </i>
   </energy>
  </scstep>
  <scstep>
   <time name="diag">    1.61    1.61</time>
   <time name="diis">   19.13   19.14</time>
   <time name="orth">    0.46    0.46</time>
   <time name="total">   21.40   21.42</time>
   <energy>
    <i name="e_fr_energy">   -633.88132803 </i>
    <i name="e_wo_entrp">   -633.71971364 </i>
    <i name="e_0_energy">   -633.80052084 </i>
   </energy>
  </scstep>
  <scstep>
   <time name="diag">    1.58    1.61</time>
   <time name="diis">   18.59   19.12</time>
   <time name="orth">    0.45    0.46</time>
   <time name="total">   20.82   21.38</time>
   <energy>
    <i name="e_fr_energy">   -633.88187320 </i>
    <i name="e_wo_entrp">   -633.72021785 </i>
    <i name="e_0_energy">   -633.80104552 </i>
   </energy>
  </scstep>
  <scstep>
   <time name="diag">    1.60    1.60</time>
   <time name="diis">   19.09   19.12</time>
   <time name="orth">    0.46    0.46</time>
   <time name="total">   21.35   21.38</time>
   <energy>
    <i name="e_fr_energy">   -633.88225066 </i>
    <i name="e_wo_entrp">   -633.72058929 </i>
    <i name="e_0_energy">   -633.80141997 </i>
   </energy>
  </scstep>
  <scstep>
   <time name="diag">    1.62    1.64</time>
   <time name="diis">   17.74   18.26</time>
   <time name="orth">    0.45    0.46</time>
   <time name="total">   20.01   20.56</time>
   <energy>
    <i name="e_fr_energy">   -633.88246455 </i>
    <i name="e_wo_entrp">   -633.72079758 </i>
    <i name="e_0_energy">   -633.80163107 </i>
   </energy>
  </scstep>
  <scstep>
   <time name="diag">    1.58    1.60</time>
   <time name="diis">   16.56   17.02</time>
   <time name="orth">    0.45    0.46</time>
   <time name="total">   18.79   19.28</time>
   <energy>
    <i name="e_fr_energy">   -633.88262900 </i>
    <i name="e_wo_entrp">   -633.72098757 </i>
    <i name="e_0_energy">   -633.80180829 </i>
   </energy>
  </scstep>
  <scstep>
   <time name="diag">    1.58    1.61</time>
   <time name="diis">   16.06   16.53</time>
   <time name="orth">    0.45    0.46</time>
   <time name="total">   18.30   18.80</time>
   <energy>
    <i name="e_fr_energy">   -633.88272267 </i>
    <i name="e_wo_entrp">   -633.72104170 </i>
    <i name="e_0_energy">   -633.80188218 </i>
   </energy>
  </scstep>
  <scstep>
   <time name="diag">    1.64    1.66</time>
   <time name="diis">   16.03   16.48</time>
   <time name="orth">    0.46    0.46</time>
   <time name="total">   18.32   18.81</time>
   <energy>
    <i name="e_fr_energy">   -633.88280142 </i>
    <i name="e_wo_entrp">   -633.72111971 </i>
    <i name="e_0_energy">   -633.80196056 </i>
   </energy>
  </scstep>
  <scstep>
   <time name="diag">    1.61    1.61</time>
   <time name="diis">   15.21   15.22</time>
   <time name="orth">    0.46    0.46</time>
   <time name="total">   17.48   17.49</time>
   <energy>
    <i name="e_fr_energy">   -633.88285050 </i>
    <i name="e_wo_entrp">   -633.72117766 </i>
    <i name="e_0_energy">   -633.80201408 </i>
   </energy>
  </scstep>
  <scstep>
   <time name="diag">    1.58    1.61</time>
   <time name="diis">   14.24   14.64</time>
   <time name="orth">    0.45    0.46</time>
   <time name="total">   16.48   16.91</time>
   <energy>
    <i name="e_fr_energy">   -633.88287423 </i>
    <i name="e_wo_entrp">   -633.72119213 </i>
    <i name="e_0_energy">   -633.80203318 </i>
   </energy>
  </scstep>
  <scstep>
   <time name="diag">    1.61    1.61</time>
   <time name="diis">   15.01   15.03</time>
   <time name="orth">    0.46    0.46</time>
   <time name="total">   17.28   17.31</time>
   <energy>
    <i name="e_fr_energy">   -633.88290090 </i>
    <i name="e_wo_entrp">   -633.72122158 </i>
    <i name="e_0_energy">   -633.80206124 </i>
   </energy>
  </scstep>
  <scstep>
   <time name="diag">    1.59    1.61</time>
   <time name="diis">   13.15   13.16</time>
   <time name="orth">    0.46    0.46</time>
   <time name="total">   15.39   15.42</time>
   <energy>
    <i name="e_fr_energy">   -633.88291248 </i>
    <i name="e_wo_entrp">   -633.72123288 </i>
    <i name="e_0_energy">   -633.80207268 </i>
   </energy>
  </scstep>
  <scstep>
   <time name="diag">    1.59    1.61</time>
   <time name="diis">   13.04   13.19</time>
   <time name="orth">    0.46    0.46</time>
   <time name="total">   15.29   15.47</time>
   <energy>
    <i name="e_fr_energy">   -633.88292199 </i>
    <i name="e_wo_entrp">   -633.72124336 </i>
    <i name="e_0_energy">   -633.80208267 </i>
   </energy>
  </scstep>
  <scstep>
   <time name="diag">    1.61    1.61</time>
   <time name="diis">   12.04   12.05</time>
   <time name="orth">    0.48    0.48</time>
   <time name="total">   14.16   14.17</time>
   <energy>
    <i name="alphaZ">   4564.59231773 </i>
    <i name="ewald"> -48927.29690891 </i>
    <i name="hartreedc">  -9902.12331855 </i>
    <i name="XCdc">   2340.22546197 </i>
    <i name="pawpsdc">  38984.52616052 </i>
    <i name="pawaedc"> -39134.60535646 </i>
    <i name="eentropy">     -0.16167857 </i>
    <i name="bandstr">  -6341.03624449 </i>
    <i name="atom">  57781.99664017 </i>
    <i name="e_fr_energy">   -633.88292660 </i>
    <i name="e_wo_entrp">   -633.72124803 </i>
    <i name="e_0_energy">   -633.80208732 </i>
   </energy>
  </scstep>
  <structure>
   <crystal>
    <varray name="basis" >
     <v>       8.56309453      -0.00049463      -0.01015781 </v>
     <v>       0.00530813       8.54269453      -0.00425980 </v>
     <v>       0.02058422      -0.01927246       8.59510632 </v>
    </varray>
    <i name="volume">    628.74947181 </i>
    <varray name="rec_basis" >
     <v>       0.11677988      -0.00007270      -0.00027984 </v>
     <v>       0.00000707       0.11705921       0.00026246 </v>
     <v>       0.00013802       0.00005793       0.11634507 </v>
    </varray>
   </crystal>
   <varray name="positions" >
    <v>       0.01429012       0.98670623       0.01290004 </v>
    <v>       0.25598255       0.98647078       0.25415936 </v>
    <v>       0.27090813       0.51017543       0.24521305 </v>
    <v>       0.49696244       0.48085602       0.99657301 </v>
    <v>       0.48361587       0.23750140       0.75932871 </v>
    <v>       0.00668419       0.49450154       0.52151980 </v>
    <v>       0.50102088       0.75020620       0.73856012 </v>
    <v>       0.99805083       0.25669346       0.25100385 </v>
    <v>       0.74184180       0.75301741       0.00132101 </v>
    <v>       0.00979361       0.24178308       0.75058619 </v>
    <v>       0.75145820       0.25230278       0.50766683 </v>
    <v>       0.00246972       0.75695100       0.75143469 </v>
    <v>       0.25367635       0.50153186       0.75489459 </v>
    <v>       0.24960355       0.24428061       0.00403957 </v>
    <v>       0.49769503       0.24488586       0.24726273 </v>
    <v>       0.74342956       0.99690074       0.25169998 </v>
    <v>       0.74863602       0.24514548       0.99329639 </v>
    <v>       0.26399804       0.75591728       0.00081685 </v>
    <v>       0.25366162       0.25010131       0.49732520 </v>
    <v>       0.25053897       0.75030957       0.50081238 </v>
    <v>       0.25316454       0.25099881       0.24997792 </v>
    <v>       0.25381077       0.99993012       0.00478282 </v>
    <v>       0.00069462       0.24377280       0.00159135 </v>
    <v>       0.74254070       0.24347582       0.24690498 </v>
    <v>       0.75086899       0.00312258       0.00095414 </v>
    <v>       0.49567229       0.99642139       0.23852857 </v>
    <v>       0.00122418       0.50331453       0.24791416 </v>
    <v>       0.49946218       0.75503139       0.99462433 </v>
    <v>       0.99193346       0.00064368       0.75194696 </v>
    <v>       0.74421294       0.24139797       0.75327548 </v>
    <v>       0.75085595       0.99896642       0.49812023 </v>
    <v>       0.49820786       0.24243860       0.50058302 </v>
    <v>       0.49517486       0.00230482       0.75431465 </v>
    <v>       0.00429119       0.00049685       0.24650678 </v>
    <v>       0.49889035       0.24792020       0.99823274 </v>
    <v>       0.25558061       0.74886990       0.25037235 </v>
    <v>       0.24893219       0.50038331       0.00851521 </v>
    <v>       0.00778494       0.74992021       0.00202883 </v>
    <v>       0.74166880       0.75090311       0.25029785 </v>
    <v>       0.75684343       0.49534405       0.00203493 </v>
    <v>       0.49562277       0.50833556       0.24453864 </v>
    <v>       0.25624441       0.24185587       0.75198370 </v>
    <v>       0.25943460       0.99961748       0.50494742 </v>
    <v>       0.00655639       0.25493134       0.50098215 </v>
    <v>       0.25811711       0.75946936       0.75024990 </v>
    <v>       0.24812215       0.50037080       0.49402586 </v>
    <v>       0.00211404       0.74729002       0.49751071 </v>
    <v>       0.99817231       0.49994423       0.75377124 </v>
    <v>       0.74305263       0.76076168       0.74540348 </v>
    <v>       0.75758467       0.49870709       0.49900759 </v>
    <v>       0.49792299       0.76027459       0.50007059 </v>
    <v>       0.50261636       0.49709773       0.75362372 </v>
    <v>       0.51263856       0.02014167       0.98180617 </v>
    <v>       0.00989711       0.52243304       0.97877470 </v>
    <v>       0.48870401       0.76647601       0.27127650 </v>
    <v>       0.23686262       0.99801056       0.74161721 </v>
    <v>       0.47938293       0.99413769       0.46984702 </v>
    <v>       0.71531380       0.98575665       0.77786775 </v>
    <v>       0.00509203       0.75233945       0.24769080 </v>
    <v>       0.73281176       0.50015779       0.24390027 </v>
    <v>       0.01465204       0.00605936       0.49182152 </v>
    <v>       0.49849300       0.50542473       0.50278769 </v>
    <v>       0.74434888       0.50925803       0.75789288 </v>
    <v>       0.75011086       0.73925443       0.49668098 </v>
   </varray>
  </structure>
  <varray name="forces" >
   <v>      -0.01333925       0.01165680      -0.01397743 </v>
   <v>      -0.00110863       0.02249059       0.00239123 </v>
   <v>      -0.02948610      -0.01119449       0.00855314 </v>
   <v>       0.00149806       0.02667572      -0.00278771 </v>
   <v>       0.01789825       0.01683096      -0.00792242 </v>
   <v>      -0.00075467       0.01006217      -0.02311126 </v>
   <v>      -0.00879903      -0.00716139       0.00159965 </v>
   <v>      -0.00300286      -0.01043458      -0.00306428 </v>
   <v>       0.02207628      -0.01023155      -0.00241726 </v>
   <v>      -0.03004414       0.02165192       0.00277296 </v>
   <v>       0.00541609      -0.00654729      -0.01395209 </v>
   <v>      -0.00527092      -0.01965208      -0.00929225 </v>
   <v>       0.00730060      -0.00551702      -0.00523202 </v>
   <v>       0.00308964       0.01888412      -0.00775919 </v>
   <v>       0.00063444       0.00149472      -0.00054410 </v>
   <v>       0.00325651       0.00459874      -0.00159405 </v>
   <v>       0.00600513       0.01190889       0.00302742 </v>
   <v>      -0.01222086      -0.01556351       0.00283367 </v>
   <v>      -0.00863038       0.00655383      -0.00443991 </v>
   <v>       0.00592308      -0.00262256      -0.00724532 </v>
   <v>       0.01783716       0.00098119       0.00033009 </v>
   <v>       0.01350049       0.00700429       0.01006355 </v>
   <v>       0.00104061       0.01449536       0.00574899 </v>
   <v>      -0.00995773      -0.00433233      -0.00514687 </v>
   <v>       0.02065266       0.01434195      -0.00673445 </v>
   <v>      -0.01479938      -0.01879390      -0.03293736 </v>
   <v>       0.01400752       0.01448976      -0.00348937 </v>
   <v>      -0.01812927      -0.00274555       0.00404857 </v>
   <v>      -0.02621371       0.00134861       0.01354338 </v>
   <v>      -0.01131653      -0.02027522       0.01171184 </v>
   <v>      -0.01914434      -0.01090539       0.03199878 </v>
   <v>      -0.01151709      -0.01306208       0.00964618 </v>
   <v>      -0.03835238      -0.00779051      -0.00583358 </v>
   <v>      -0.00558741       0.00912541      -0.00810875 </v>
   <v>       0.00170516       0.00254691       0.00094538 </v>
   <v>      -0.00308091      -0.01148030      -0.00452578 </v>
   <v>      -0.00885366       0.00051785       0.02006525 </v>
   <v>       0.00812703      -0.00838727      -0.00144961 </v>
   <v>      -0.00763062       0.01689024       0.00277420 </v>
   <v>       0.01365892      -0.01795537       0.00192973 </v>
   <v>      -0.02476948       0.01459254      -0.01116366 </v>
   <v>       0.01585928      -0.01776840      -0.00107412 </v>
   <v>       0.02815982       0.00594507      -0.00690728 </v>
   <v>       0.01097977       0.03307061      -0.00425762 </v>
   <v>       0.01333192       0.02452085      -0.00749778 </v>
   <v>      -0.02415653       0.00193152      -0.01281730 </v>
   <v>       0.01604306      -0.02294708      -0.00088371 </v>
   <v>      -0.00086920      -0.00496820       0.00894597 </v>
   <v>      -0.00890480       0.02530843       0.00015362 </v>
   <v>       0.02844919      -0.02690480      -0.00138060 </v>
   <v>      -0.00926823       0.02757490       0.01243097 </v>
   <v>      -0.01378174      -0.01154677       0.01345261 </v>
   <v>      -0.01147841      -0.01749195       0.02264094 </v>
   <v>      -0.00656128      -0.03209082       0.01794892 </v>
   <v>       0.01083875      -0.01832788      -0.03902562 </v>
   <v>      -0.00183838      -0.00362011       0.01962129 </v>
   <v>       0.03881901       0.00447226       0.00666210 </v>
   <v>       0.02906498       0.01643526      -0.02100408 </v>
   <v>       0.00120056      -0.00385745       0.00843621 </v>
   <v>       0.03860470      -0.02172481       0.01085093 </v>
   <v>      -0.02310048      -0.00747459       0.02053793 </v>
   <v>       0.00310665      -0.01893018       0.00451259 </v>
   <v>       0.01724266      -0.02557413      -0.00661258 </v>
   <v>      -0.00335960       0.04947808       0.00401132 </v>
  </varray>
  <varray name="stress" >
   <v>      -0.77449951      -0.04780371       0.06074368 </v>
   <v>      -0.04780371      -1.31971788       0.11536800 </v>
   <v>       0.06074101       0.11536826      -0.24607444 </v>
  </varray>
  <energy>
   <i name="e_fr_energy">   -633.88292660 </i>
   <i name="e_wo_entrp">   -633.80208732 </i>
   <i name="e_0_energy">     -0.16167857 </i>
  </energy>
  <time name="totalsc">  816.27  823.85</time>
 </calculation>
 <calculation>
  <scstep>
   <time name="dav">   25.96   26.64</time>
   <time name="total">   26.16   26.84</time>
   <energy>
    <i name="alphaZ">   4567.75392296 </i>
    <i name="ewald"> -48942.16080031 </i>
    <i name="hartreedc">  -9901.28257870 </i>
    <i name="XCdc">   2340.72976166 </i>
    <i name="pawpsdc">  38984.59295632 </i>
    <i name="pawaedc"> -39134.65356260 </i>
    <i name="eentropy">     -0.16073562 </i>
    <i name="bandstr">  -6330.69192368 </i>
    <i name="atom">  57781.99664017 </i>
    <i name="e_fr_energy">   -633.87631980 </i>
    <i name="e_wo_entrp">   -633.71558418 </i>
    <i name="e_0_energy">   -633.79595199 </i>
   </energy>
  </scstep>
  <scstep>
   <time name="diag">    3.15    3.30</time>
   <time name="diis">   18.41   19.17</time>
   <time name="orth">    0.46    0.47</time>
   <time name="total">   22.22   23.14</time>
   <energy>
    <i name="e_fr_energy">   -633.89532691 </i>
    <i name="e_wo_entrp">   -633.73307161 </i>
    <i name="e_0_energy">   -633.81419926 </i>
   </energy>
  </scstep>
  <scstep>
   <time name="diag">    1.58    1.60</time>
   <time name="diis">   16.37   16.84</time>
   <time name="orth">    0.46    0.47</time>
   <time name="total">   18.61   19.10</time>
   <energy>
    <i name="e_fr_energy">   -633.88683867 </i>
    <i name="e_wo_entrp">   -633.72538999 </i>
    <i name="e_0_energy">   -633.80611433 </i>
   </energy>
  </scstep>
  <scstep>
   <time name="diag">    1.62    1.62</time>
   <time name="diis">   18.77   18.82</time>
   <time name="orth">    0.46    0.46</time>
   <time name="total">   21.05   21.10</time>
   <energy>
    <i name="e_fr_energy">   -633.88536009 </i>
    <i name="e_wo_entrp">   -633.72459619 </i>
    <i name="e_0_energy">   -633.80497814 </i>
   </energy>
  </scstep>
  <scstep>
   <time name="diag">    1.58    1.60</time>
   <time name="diis">   17.55   17.57</time>
   <time name="orth">    0.46    0.46</time>
   <time name="total">   19.79   19.83</time>
   <energy>
    <i name="e_fr_energy">   -633.88516184 </i>
    <i name="e_wo_entrp">   -633.72381603 </i>
    <i name="e_0_energy">   -633.80448894 </i>
   </energy>
  </scstep>
  <scstep>
   <time name="diag">    1.60    1.60</time>
   <time name="diis">   17.49   17.83</time>
   <time name="orth">    0.46    0.46</time>
   <time name="total">   19.74   20.09</time>
   <energy>
    <i name="e_fr_energy">   -633.88448483 </i>
    <i name="e_wo_entrp">   -633.72327788 </i>
    <i name="e_0_energy">   -633.80388135 </i>
   </energy>
  </scstep>
  <scstep>
   <time name="diag">    1.60    1.62</time>
   <time name="diis">   17.41   17.97</time>
   <time name="orth">    0.46    0.46</time>
   <time name="total">   19.66   20.25</time>
   <energy>
    <i name="e_fr_energy">   -633.88453605 </i>
    <i name="e_wo_entrp">   -633.72341882 </i>
    <i name="e_0_energy">   -633.80397744 </i>
   </energy>
  </scstep>
  <scstep>
   <time name="diag">    1.59    1.60</time>
   <time name="diis">   16.00   16.07</time>
   <time name="orth">    0.45    0.46</time>
   <time name="total">   18.24   18.33</time>
   <energy>
    <i name="e_fr_energy">   -633.88451499 </i>
    <i name="e_wo_entrp">   -633.72329171 </i>
    <i name="e_0_energy">   -633.80390335 </i>
   </energy>
  </scstep>
  <scstep>
   <time name="diag">    1.58    1.60</time>
   <time name="diis">   14.45   14.87</time>
   <time name="orth">    0.46    0.46</time>
   <time name="total">   16.68   17.13</time>
   <energy>
    <i name="e_fr_energy">   -633.88435858 </i>
    <i name="e_wo_entrp">   -633.72316934 </i>
    <i name="e_0_energy">   -633.80376396 </i>
   </energy>
  </scstep>
  <scstep>
   <time name="diag">    1.58    1.60</time>
   <time name="diis">   14.64   15.06</time>
   <time name="orth">    0.47    0.48</time>
   <time name="total">   16.88   17.34</time>
   <energy>
    <i name="e_fr_energy">   -633.88435205 </i>
    <i name="e_wo_entrp">   -633.72314290 </i>
    <i name="e_0_energy">   -633.80374748 </i>
   </energy>
  </scstep>
  <scstep>
   <time name="diag">    1.60    1.63</time>
   <time name="diis">   11.24   11.55</time>
   <time name="orth">    0.46    0.46</time>
   <time name="total">   13.49   13.83</time>
   <energy>
    <i name="e_fr_energy">   -633.88433997 </i>
    <i name="e_wo_entrp">   -633.72312598 </i>
    <i name="e_0_energy">   -633.80373297 </i>
   </energy>
  </scstep>
  <scstep>
   <time name="diag">    1.63    1.63</time>
   <time name="diis">   10.66   10.66</time>
   <time name="orth">    0.46    0.46</time>
   <time name="total">   12.77   12.78</time>
   <energy>
    <i name="alphaZ">   4567.75392296 </i>
    <i name="ewald"> -48942.16080031 </i>
    <i name="hartreedc">  -9894.48504681 </i>
    <i name="XCdc">   2340.35553352 </i>
    <i name="pawpsdc">  38987.94879159 </i>
    <i name="pawaedc"> -39138.04697053 </i>
    <i name="eentropy">     -0.16120196 </i>
    <i name="bandstr">  -6337.08521093 </i>
    <i name="atom">  57781.99664017 </i>
    <i name="e_fr_energy">   -633.88434230 </i>
    <i name="e_wo_entrp">   -633.72314034 </i>
    <i name="e_0_energy">   -633.80374132 </i>
   </energy>
  </scstep>
  <structure>
   <crystal>
    <varray name="basis" >
     <v>       8.56113248      -0.00061588      -0.01000322 </v>
     <v>       0.00518603       8.53935932      -0.00396785 </v>
     <v>       0.02073422      -0.01897190       8.59448038 </v>
    </varray>
    <i name="volume">    628.31427813 </i>
    <varray name="rec_basis" >
     <v>       0.11680664      -0.00007107      -0.00028195 </v>
     <v>       0.00000873       0.11710492       0.00025848 </v>
     <v>       0.00013596       0.00005398       0.11635354 </v>
    </varray>
   </crystal>
   <varray name="positions" >
    <v>       0.01421512       0.98677188       0.01282154 </v>
    <v>       0.25597620       0.98659782       0.25417283 </v>
    <v>       0.27074194       0.51011231       0.24526083 </v>
    <v>       0.49697082       0.48100663       0.99655745 </v>
    <v>       0.48371675       0.23759635       0.75928441 </v>
    <v>       0.00668021       0.49455807       0.52139010 </v>
    <v>       0.50097131       0.75016577       0.73856902 </v>
    <v>       0.99803399       0.25663449       0.25098661 </v>
    <v>       0.74196624       0.75295961       0.00130756 </v>
    <v>       0.00962423       0.24190538       0.75060161 </v>
    <v>       0.75148893       0.25226563       0.50758853 </v>
    <v>       0.00244022       0.75683990       0.75138244 </v>
    <v>       0.25371757       0.50150064       0.75486526 </v>
    <v>       0.24962100       0.24438716       0.00399609 </v>
    <v>       0.49769861       0.24489430       0.24725968 </v>
    <v>       0.74344791       0.99692669       0.25169107 </v>
    <v>       0.74866977       0.24521277       0.99331346 </v>
    <v>       0.26392920       0.75582942       0.00083263 </v>
    <v>       0.25361303       0.25013826       0.49730024 </v>
    <v>       0.25057245       0.75029467       0.50077175 </v>
    <v>       0.25326502       0.25100436       0.24997989 </v>
    <v>       0.25388667       0.99996980       0.00483941 </v>
    <v>       0.00070036       0.24385474       0.00162367 </v>
    <v>       0.74248468       0.24345128       0.24687601 </v>
    <v>       0.75098538       0.00320350       0.00091652 </v>
    <v>       0.49558942       0.99631483       0.23834355 </v>
    <v>       0.00130309       0.50339632       0.24789471 </v>
    <v>       0.49936000       0.75501593       0.99464692 </v>
    <v>       0.99178559       0.00065146       0.75202280 </v>
    <v>       0.74414909       0.24128361       0.75334108 </v>
    <v>       0.75074771       0.99890524       0.49829968 </v>
    <v>       0.49814290       0.24236496       0.50063705 </v>
    <v>       0.49495889       0.00226074       0.75428163 </v>
    <v>       0.00425979       0.00054828       0.24646125 </v>
    <v>       0.49889994       0.24793459       0.99823806 </v>
    <v>       0.25556336       0.74880501       0.25034689 </v>
    <v>       0.24888203       0.50038648       0.00862777 </v>
    <v>       0.00783078       0.74987283       0.00202072 </v>
    <v>       0.74162572       0.75099853       0.25031342 </v>
    <v>       0.75692042       0.49524268       0.00204580 </v>
    <v>       0.49548333       0.50841782       0.24447586 </v>
    <v>       0.25633384       0.24175551       0.75197773 </v>
    <v>       0.25959331       0.99965097       0.50490886 </v>
    <v>       0.00661819       0.25511805       0.50095842 </v>
    <v>       0.25819223       0.75960775       0.75020797 </v>
    <v>       0.24798622       0.50038154       0.49395376 </v>
    <v>       0.00220452       0.74716043       0.49750579 </v>
    <v>       0.99816731       0.49991629       0.75382143 </v>
    <v>       0.74300238       0.76090460       0.74540436 </v>
    <v>       0.75774506       0.49855515       0.49899995 </v>
    <v>       0.49787051       0.76043047       0.50014038 </v>
    <v>       0.50253858       0.49703269       0.75369911 </v>
    <v>       0.51257364       0.02004317       0.98193313 </v>
    <v>       0.00986001       0.52225204       0.97887531 </v>
    <v>       0.48876566       0.76637202       0.27105747 </v>
    <v>       0.23685202       0.99799037       0.74172732 </v>
    <v>       0.47960153       0.99416305       0.46988468 </v>
    <v>       0.71547777       0.98584921       0.77775010 </v>
    <v>       0.00509869       0.75231778       0.24773815 </v>
    <v>       0.73302918       0.50003525       0.24396137 </v>
    <v>       0.01452165       0.00601740       0.49193662 </v>
    <v>       0.49851051       0.50531788       0.50281299 </v>
    <v>       0.74444620       0.50911353       0.75785581 </v>
    <v>       0.75009170       0.73953389       0.49670361 </v>
   </varray>
  </structure>
  <varray name="forces" >
   <v>      -0.00823196       0.00260316      -0.01156153 </v>
   <v>      -0.00467488       0.01233214       0.00314918 </v>
   <v>      -0.01625932      -0.01027150       0.00676940 </v>
   <v>       0.00152065       0.01850903       0.00107199 </v>
   <v>       0.01937362       0.00682341       0.00281119 </v>
   <v>       0.00297578       0.00684997      -0.00487633 </v>
   <v>      -0.00335377      -0.00036745       0.00943390 </v>
   <v>      -0.00280383      -0.01423703       0.00280342 </v>
   <v>       0.01830497      -0.00666953       0.00005610 </v>
   <v>      -0.00583077       0.01020736      -0.00422974 </v>
   <v>       0.00991758      -0.02174509      -0.01123711 </v>
   <v>      -0.00083993      -0.00671668       0.00174566 </v>
   <v>      -0.01044723      -0.00548073      -0.00078453 </v>
   <v>       0.00402610       0.00944480      -0.00476223 </v>
   <v>       0.00134496       0.00423175      -0.00288090 </v>
   <v>       0.00114760       0.00795466      -0.00935044 </v>
   <v>       0.00087208       0.00554007       0.00742582 </v>
   <v>      -0.01395932      -0.00486327       0.00152878 </v>
   <v>      -0.00515147      -0.00048893       0.00264977 </v>
   <v>       0.00663033       0.00594737      -0.00723093 </v>
   <v>       0.00608012      -0.00309501      -0.00026246 </v>
   <v>       0.00839451       0.00422051       0.00290287 </v>
   <v>       0.00182199       0.01824384      -0.00009917 </v>
   <v>      -0.00596187      -0.00593254      -0.00129192 </v>
   <v>       0.01433909       0.00168985      -0.00875133 </v>
   <v>      -0.00277554      -0.00623016      -0.02214129 </v>
   <v>       0.00519486       0.00441046      -0.00069518 </v>
   <v>       0.00052792      -0.00670621       0.00861148 </v>
   <v>      -0.02453951       0.00005767       0.00789293 </v>
   <v>      -0.00627528      -0.00984981      -0.00062266 </v>
   <v>      -0.01716922      -0.01093528       0.03023489 </v>
   <v>      -0.00241504      -0.00195133       0.00494273 </v>
   <v>      -0.00710831      -0.00909027       0.00339458 </v>
   <v>      -0.00508344       0.00106548       0.00417715 </v>
   <v>       0.00361688       0.00590822       0.00091266 </v>
   <v>      -0.00264954       0.00344772       0.00028734 </v>
   <v>      -0.00623648      -0.00119643       0.00052492 </v>
   <v>      -0.00040583      -0.00527849      -0.00155805 </v>
   <v>      -0.00145964       0.00053522      -0.00023296 </v>
   <v>       0.00819477      -0.00265209       0.00270780 </v>
   <v>       0.01481071       0.00040296       0.00351946 </v>
   <v>      -0.00940529      -0.00217596      -0.00209629 </v>
   <v>      -0.00193660       0.00377070       0.00534632 </v>
   <v>       0.00180059       0.00413623      -0.00182471 </v>
   <v>       0.00008401       0.00176736      -0.00110135 </v>
   <v>      -0.00252671       0.00101521      -0.00239381 </v>
   <v>       0.00554132      -0.00783604       0.00073838 </v>
   <v>       0.00267770      -0.00126559      -0.00409068 </v>
   <v>      -0.00019556      -0.00542173       0.00189167 </v>
   <v>       0.00235050       0.02335170       0.00047962 </v>
   <v>       0.00227501      -0.00137725       0.00018584 </v>
   <v>       0.00870009      -0.00292889      -0.00088093 </v>
   <v>      -0.00381645      -0.01021410       0.00102235 </v>
   <v>      -0.00103249      -0.02070739       0.01130164 </v>
   <v>      -0.00095528      -0.02063495      -0.01917531 </v>
   <v>      -0.00622390       0.00158220       0.00801778 </v>
   <v>       0.03466024       0.00590844      -0.01289021 </v>
   <v>      -0.00872395       0.02387680      -0.00405977 </v>
   <v>      -0.00150547       0.00941188      -0.00279745 </v>
   <v>      -0.00102234       0.00014980       0.01145326 </v>
   <v>       0.00353868       0.00229947       0.00826801 </v>
   <v>       0.00942597       0.00112024      -0.00785410 </v>
   <v>      -0.00097105      -0.01036135      -0.00717753 </v>
   <v>      -0.00820138       0.00786539       0.00065202 </v>
  </varray>
  <varray name="stress" >
   <v>       0.60857384      -0.01944560       0.05184734 </v>
   <v>      -0.01944558       0.87068612       0.04190953 </v>
   <v>       0.05184593       0.04191163       0.48824933 </v>
  </varray>
  <energy>
   <i name="e_fr_energy">   -633.88434230 </i>
   <i name="e_wo_entrp">   -633.80374132 </i>
   <i name="e_0_energy">     -0.16120196 </i>
  </energy>
  <time name="totalsc">  267.01  271.65</time>
 </calculation>
 <calculation>
  <scstep>
   <time name="dav">   25.59   25.97</time>
   <time name="total">   25.79   26.17</time>
   <energy>
    <i name="alphaZ">   4568.49030801 </i>
    <i name="ewald"> -48945.61303978 </i>
    <i name="hartreedc">  -9894.32943213 </i>
    <i name="XCdc">   2340.47535536 </i>
    <i name="pawpsdc">  38988.24019811 </i>
    <i name="pawaedc"> -39138.32712582 </i>
    <i name="eentropy">     -0.16097299 </i>
    <i name="bandstr">  -6334.65590290 </i>
    <i name="atom">  57781.99664017 </i>
    <i name="e_fr_energy">   -633.88397198 </i>
    <i name="e_wo_entrp">   -633.72299899 </i>
    <i name="e_0_energy">   -633.80348549 </i>
   </energy>
  </scstep>
  <scstep>
   <time name="diag">    1.58    1.61</time>
   <time name="diis">   18.42   19.00</time>
   <time name="orth">    0.45    0.46</time>
   <time name="total">   20.64   21.26</time>
   <energy>
    <i name="e_fr_energy">   -633.88512855 </i>
    <i name="e_wo_entrp">   -633.72368637 </i>
    <i name="e_0_energy">   -633.80440746 </i>
   </energy>
  </scstep>
  <scstep>
   <time name="diag">    1.62    1.62</time>
   <time name="diis">   15.64   15.66</time>
   <time name="orth">    0.46    0.46</time>
   <time name="total">   17.91   17.94</time>
   <energy>
    <i name="e_fr_energy">   -633.88454169 </i>
    <i name="e_wo_entrp">   -633.72340756 </i>
    <i name="e_0_energy">   -633.80397462 </i>
   </energy>
  </scstep>
  <scstep>
   <time name="diag">    1.62    1.65</time>
   <time name="diis">   16.38   16.41</time>
   <time name="orth">    0.46    0.46</time>
   <time name="total">   18.65   18.71</time>
   <energy>
    <i name="e_fr_energy">   -633.88444586 </i>
    <i name="e_wo_entrp">   -633.72344369 </i>
    <i name="e_0_energy">   -633.80394477 </i>
   </energy>
  </scstep>
  <scstep>
   <time name="diag">    1.58    1.60</time>
   <time name="diis">   12.50   12.85</time>
   <time name="orth">    0.46    0.47</time>
   <time name="total">   14.73   15.12</time>
   <energy>
    <i name="e_fr_energy">   -633.88443475 </i>
    <i name="e_wo_entrp">   -633.72331430 </i>
    <i name="e_0_energy">   -633.80387452 </i>
   </energy>
  </scstep>
  <scstep>
   <time name="diag">    1.61    1.61</time>
   <time name="diis">   11.66   11.72</time>
   <time name="orth">    0.48    0.48</time>
   <time name="total">   13.94   14.01</time>
   <energy>
    <i name="e_fr_energy">   -633.88440223 </i>
    <i name="e_wo_entrp">   -633.72331638 </i>
    <i name="e_0_energy">   -633.80385931 </i>
   </energy>
  </scstep>
  <scstep>
   <time name="diag">    1.60    1.60</time>
   <time name="diis">    9.60    9.61</time>
   <time name="orth">    0.46    0.46</time>
   <time name="total">   11.68   11.70</time>
   <energy>
    <i name="alphaZ">   4568.49030801 </i>
    <i name="ewald"> -48945.61303978 </i>
    <i name="hartreedc">  -9892.94370614 </i>
    <i name="XCdc">   2340.39985829 </i>
    <i name="pawpsdc">  38988.98954869 </i>
    <i name="pawaedc"> -39139.02228491 </i>
    <i name="eentropy">     -0.16108859 </i>
    <i name="bandstr">  -6336.02063995 </i>
    <i name="atom">  57781.99664017 </i>
    <i name="e_fr_energy">   -633.88440423 </i>
    <i name="e_wo_entrp">   -633.72331563 </i>
    <i name="e_0_energy">   -633.80385993 </i>
   </energy>
  </scstep>
  <structure>
   <crystal>
    <varray name="basis" >
     <v>       8.56067577      -0.00064410      -0.00996724 </v>
     <v>       0.00515761       8.53858298      -0.00389990 </v>
     <v>       0.02076913      -0.01890194       8.59433468 </v>
    </varray>
    <i name="volume">    628.21300152 </i>
    <varray name="rec_basis" >
     <v>       0.11681287      -0.00007069      -0.00028245 </v>
     <v>       0.00000911       0.11711556       0.00025756 </v>
     <v>       0.00013548       0.00005306       0.11635551 </v>
    </varray>
   </crystal>
   <varray name="positions" >
    <v>       0.01419766       0.98678717       0.01280326 </v>
    <v>       0.25597472       0.98662740       0.25417597 </v>
    <v>       0.27070324       0.51009761       0.24527195 </v>
    <v>       0.49697277       0.48104170       0.99655382 </v>
    <v>       0.48374024       0.23761846       0.75927410 </v>
    <v>       0.00667929       0.49457123       0.52135991 </v>
    <v>       0.50095977       0.75015636       0.73857109 </v>
    <v>       0.99803007       0.25662076       0.25098259 </v>
    <v>       0.74199521       0.75294615       0.00130443 </v>
    <v>       0.00958480       0.24193385       0.75060521 </v>
    <v>       0.75149608       0.25225698       0.50757031 </v>
    <v>       0.00243335       0.75681403       0.75137028 </v>
    <v>       0.25372716       0.50149337       0.75485843 </v>
    <v>       0.24962506       0.24441197       0.00398597 </v>
    <v>       0.49769944       0.24489626       0.24725897 </v>
    <v>       0.74345219       0.99693273       0.25168899 </v>
    <v>       0.74867762       0.24522844       0.99331743 </v>
    <v>       0.26391318       0.75580896       0.00083630 </v>
    <v>       0.25360172       0.25014686       0.49729443 </v>
    <v>       0.25058024       0.75029120       0.50076229 </v>
    <v>       0.25328842       0.25100566       0.24998035 </v>
    <v>       0.25390434       0.99997904       0.00485259 </v>
    <v>       0.00070169       0.24387381       0.00163119 </v>
    <v>       0.74247164       0.24344557       0.24686927 </v>
    <v>       0.75101248       0.00322234       0.00090776 </v>
    <v>       0.49557013       0.99629002       0.23830048 </v>
    <v>       0.00132146       0.50341536       0.24789018 </v>
    <v>       0.49933621       0.75501233       0.99465218 </v>
    <v>       0.99175117       0.00065327       0.75204046 </v>
    <v>       0.74413423       0.24125698       0.75335635 </v>
    <v>       0.75072250       0.99889099       0.49834145 </v>
    <v>       0.49812777       0.24234781       0.50064963 </v>
    <v>       0.49490861       0.00225047       0.75427395 </v>
    <v>       0.00425248       0.00056026       0.24645066 </v>
    <v>       0.49890217       0.24793794       0.99823930 </v>
    <v>       0.25555934       0.74878990       0.25034097 </v>
    <v>       0.24887036       0.50038722       0.00865398 </v>
    <v>       0.00784145       0.74986179       0.00201883 </v>
    <v>       0.74161569       0.75102074       0.25031704 </v>
    <v>       0.75693834       0.49521907       0.00204834 </v>
    <v>       0.49545086       0.50843697       0.24446124 </v>
    <v>       0.25635466       0.24173215       0.75197634 </v>
    <v>       0.25963027       0.99965877       0.50489988 </v>
    <v>       0.00663258       0.25516152       0.50095290 </v>
    <v>       0.25820972       0.75963997       0.75019821 </v>
    <v>       0.24795457       0.50038404       0.49393698 </v>
    <v>       0.00222558       0.74713025       0.49750464 </v>
    <v>       0.99816614       0.49990978       0.75383312 </v>
    <v>       0.74299067       0.76093789       0.74540456 </v>
    <v>       0.75778240       0.49851976       0.49899818 </v>
    <v>       0.49785829       0.76046677       0.50015662 </v>
    <v>       0.50252047       0.49701754       0.75371665 </v>
    <v>       0.51255853       0.02002023       0.98196268 </v>
    <v>       0.00985137       0.52220990       0.97889874 </v>
    <v>       0.48878002       0.76634781       0.27100649 </v>
    <v>       0.23684954       0.99798566       0.74175295 </v>
    <v>       0.47965242       0.99416895       0.46989345 </v>
    <v>       0.71551595       0.98587076       0.77772271 </v>
    <v>       0.00510024       0.75231273       0.24774917 </v>
    <v>       0.73307980       0.50000672       0.24397559 </v>
    <v>       0.01449129       0.00600763       0.49196342 </v>
    <v>       0.49851459       0.50529300       0.50281888 </v>
    <v>       0.74446886       0.50907988       0.75784718 </v>
    <v>       0.75008724       0.73959897       0.49670888 </v>
   </varray>
  </structure>
  <varray name="forces" >
   <v>      -0.00669521       0.00216773      -0.01245605 </v>
   <v>      -0.00487409       0.00878217       0.00292601 </v>
   <v>      -0.01241940      -0.00948322       0.00589764 </v>
   <v>       0.00147944       0.01557798       0.00115355 </v>
   <v>       0.01766856       0.00529266       0.00654970 </v>
   <v>       0.00440082       0.00560191       0.00014781 </v>
   <v>      -0.00296889      -0.00169529       0.01064178 </v>
   <v>      -0.00226012      -0.01354689       0.00422106 </v>
   <v>       0.01528041      -0.00645021       0.00230802 </v>
   <v>       0.00056442       0.00834286      -0.00568033 </v>
   <v>       0.01108254      -0.02428441      -0.00975997 </v>
   <v>       0.00023830      -0.00261577       0.00435823 </v>
   <v>      -0.01337638      -0.00491921       0.00073685 </v>
   <v>       0.00557121       0.00692319      -0.00299540 </v>
   <v>       0.00134952       0.00539799      -0.00444733 </v>
   <v>       0.00009058       0.00785906      -0.01235019 </v>
   <v>      -0.00053095       0.00471447       0.00922530 </v>
   <v>      -0.01066279      -0.00186163       0.00149868 </v>
   <v>      -0.00388772      -0.00076106       0.00356778 </v>
   <v>       0.00581720       0.00676723      -0.00716597 </v>
   <v>       0.00383712      -0.00369992      -0.00038421 </v>
   <v>       0.00799988       0.00376649       0.00097221 </v>
   <v>       0.00169689       0.01898569      -0.00159203 </v>
   <v>      -0.00491259      -0.00595175      -0.00075917 </v>
   <v>       0.01453815      -0.00087821      -0.00825429 </v>
   <v>      -0.00063438      -0.00392040      -0.02168731 </v>
   <v>       0.00358144       0.00249117      -0.00044939 </v>
   <v>       0.00342706      -0.00680021       0.00986480 </v>
   <v>      -0.02510075      -0.00070694       0.00728295 </v>
   <v>      -0.00439751      -0.00770217      -0.00239230 </v>
   <v>      -0.01727906      -0.01176892       0.03088218 </v>
   <v>      -0.00053129       0.00013941       0.00386333 </v>
   <v>      -0.00173654      -0.01020710       0.00430017 </v>
[...]
      </set>
     </set>
    </set>
   </array>
  </eigenvalues>
  <separator name="orbital magnetization" >
   <v name="MAGDIPOLOUT">      0.00000000      0.00000000      0.00000000</v>
  </separator>
  <dos>
   <i name="efermi">      9.47592987 </i>
   <total>
    <array>
     <dimension dim="1">gridpoints</dimension>
     <dimension dim="2">spin</dimension>
     <field>energy</field>
     <field>total</field>
     <field>integrated</field>
     <set>
      <set comment="spin 1">
       <r>   -58.9444     0.0000     0.0000 </r>
       <r>   -58.6966     0.0000     0.0000 </r>
       <r>   -58.4488     0.0000     0.0000 </r>
       <r>   -58.2010     0.0000     0.0000 </r>
       <r>   -57.9533     0.0000     0.0000 </r>
       <r>   -57.7055     0.0000     0.0000 </r>
       <r>   -57.4577     0.0000     0.0000 </r>
       <r>   -57.2099     0.0000     0.0000 </r>
       <r>   -56.9621     0.0000     0.0000 </r>
       <r>   -56.7143     0.0000     0.0000 </r>
       <r>   -56.4666     0.0000     0.0000 </r>
       <r>   -56.2188     0.0000     0.0000 </r>
       <r>   -55.9710     0.0000     0.0000 </r>
       <r>   -55.7232     0.1078     0.0267 </r>
       <r>   -55.4754    20.5598     5.1211 </r>
       <r>   -55.2276    35.0791    13.8131 </r>
       <r>   -54.9799     0.7541    14.0000 </r>
       <r>   -54.7321     0.0000    14.0000 </r>
       <r>   -54.4843     0.0000    14.0000 </r>
       <r>   -54.2365     0.0000    14.0000 </r>
       <r>   -53.9887     0.0000    14.0000 </r>
       <r>   -53.7409     0.0000    14.0000 </r>
       <r>   -53.4932     0.0000    14.0000 </r>
       <r>   -53.2454     0.0000    14.0000 </r>
       <r>   -52.9976     0.0000    14.0000 </r>
       <r>   -52.7498     0.0000    14.0000 </r>
       <r>   -52.5020     0.0000    14.0000 </r>
       <r>   -52.2542     0.0000    14.0000 </r>
       <r>   -52.0064     0.0000    14.0000 </r>
       <r>   -51.7587     0.0000    14.0000 </r>
       <r>   -51.5109     0.0000    14.0000 </r>
       <r>   -51.2631     0.0000    14.0000 </r>
       <r>   -51.0153     0.0000    14.0000 </r>
       <r>   -50.7675     0.0000    14.0000 </r>
       <r>   -50.5197     0.0000    14.0000 </r>
       <r>   -50.2720     0.0000    14.0000 </r>
       <r>   -50.0242     0.0000    14.0000 </r>
       <r>   -49.7764     0.0000    14.0000 </r>
       <r>   -49.5286     0.0000    14.0000 </r>
       <r>   -49.2808     0.0000    14.0000 </r>
       <r>   -49.0330     0.0000    14.0000 </r>
       <r>   -48.7853     0.0000    14.0000 </r>
       <r>   -48.5375     0.0000    14.0000 </r>
       <r>   -48.2897     0.5949    14.1474 </r>
       <r>   -48.0419    21.1951    19.3992 </r>
       <r>   -47.7941    18.9430    24.0930 </r>
       <r>   -47.5463    10.8895    26.7912 </r>
       <r>   -47.2986     4.8736    27.9988 </r>
       <r>   -47.0508     0.0048    28.0000 </r>
       <r>   -46.8030     0.0729    28.0181 </r>
       <r>   -46.5552    10.8300    30.7015 </r>
       <r>   -46.3074    12.3732    33.7674 </r>
       <r>   -46.0596    16.8005    37.9303 </r>
       <r>   -45.8119     8.0133    39.9159 </r>
       <r>   -45.5641     0.3395    40.0000 </r>
       <r>   -45.3163     0.0000    40.0000 </r>
       <r>   -45.0685     0.0000    40.0000 </r>
       <r>   -44.8207     0.0000    40.0000 </r>
       <r>   -44.5729     0.0000    40.0000 </r>
       <r>   -44.3252     0.0000    40.0000 </r>
       <r>   -44.0774     0.0000    40.0000 </r>
       <r>   -43.8296     0.0000    40.0000 </r>
       <r>   -43.5818     0.0000    40.0000 </r>
       <r>   -43.3340     0.0000    40.0000 </r>
       <r>   -43.0862     0.0000    40.0000 </r>
       <r>   -42.8385     0.0000    40.0000 </r>
       <r>   -42.5907     0.0000    40.0000 </r>
       <r>   -42.3429     0.0000    40.0000 </r>
       <r>   -42.0951     0.0000    40.0000 </r>
       <r>   -41.8473     0.0000    40.0000 </r>
       <r>   -41.5995     0.0000    40.0000 </r>
       <r>   -41.3518     0.0000    40.0000 </r>
       <r>   -41.1040     0.0000    40.0000 </r>
       <r>   -40.8562     0.0000    40.0000 </r>
       <r>   -40.6084     0.0000    40.0000 </r>
       <r>   -40.3606     0.0000    40.0000 </r>
       <r>   -40.1128     0.0000    40.0000 </r>
       <r>   -39.8651     0.0000    40.0000 </r>
       <r>   -39.6173     0.0000    40.0000 </r>
       <r>   -39.3695     0.0000    40.0000 </r>
       <r>   -39.1217     0.0000    40.0000 </r>
       <r>   -38.8739     0.0000    40.0000 </r>
       <r>   -38.6261     0.0000    40.0000 </r>
       <r>   -38.3784     0.0000    40.0000 </r>
       <r>   -38.1306     0.0000    40.0000 </r>
       <r>   -37.8828     0.0000    40.0000 </r>
       <r>   -37.6350     0.0000    40.0000 </r>
       <r>   -37.3872     0.0000    40.0000 </r>
       <r>   -37.1394     0.0000    40.0000 </r>
       <r>   -36.8917     0.0000    40.0000 </r>
       <r>   -36.6439     0.0000    40.0000 </r>
       <r>   -36.3961     0.0000    40.0000 </r>
       <r>   -36.1483     0.0000    40.0000 </r>
       <r>   -35.9005     0.0000    40.0000 </r>
       <r>   -35.6527     0.0000    40.0000 </r>
       <r>   -35.4050     0.0000    40.0000 </r>
       <r>   -35.1572     0.0000    40.0000 </r>
       <r>   -34.9094     0.0000    40.0000 </r>
       <r>   -34.6616     0.0138    40.0034 </r>
       <r>   -34.4138     8.9817    42.2289 </r>
       <r>   -34.1660    66.5650    58.7226 </r>
       <r>   -33.9182    68.0224    75.5775 </r>
       <r>   -33.6705     1.7053    76.0000 </r>
       <r>   -33.4227     0.0000    76.0000 </r>
       <r>   -33.1749     0.0000    76.0000 </r>
       <r>   -32.9271     0.0000    76.0000 </r>
       <r>   -32.6793     0.0000    76.0000 </r>
       <r>   -32.4315     0.0000    76.0000 </r>
       <r>   -32.1838     0.0000    76.0000 </r>
       <r>   -31.9360     0.0000    76.0000 </r>
       <r>   -31.6882     0.0000    76.0000 </r>
       <r>   -31.4404     0.0000    76.0000 </r>
       <r>   -31.1926     0.0000    76.0000 </r>
       <r>   -30.9448     0.0000    76.0000 </r>
       <r>   -30.6971     0.0000    76.0000 </r>
       <r>   -30.4493     0.0000    76.0000 </r>
       <r>   -30.2015     0.1294    76.0321 </r>
       <r>   -29.9537    24.6071    82.1293 </r>
       <r>   -29.7059    92.3576   105.0140 </r>
       <r>   -29.4581    83.1944   125.6282 </r>
       <r>   -29.2104   105.1213   151.6755 </r>
       <r>   -28.9626     9.3707   153.9974 </r>
       <r>   -28.7148     0.0104   154.0000 </r>
       <r>   -28.4670     0.0000   154.0000 </r>
       <r>   -28.2192     0.0000   154.0000 </r>
       <r>   -27.9714     0.0000   154.0000 </r>
       <r>   -27.7237     0.0000   154.0000 </r>
       <r>   -27.4759     0.0000   154.0000 </r>
       <r>   -27.2281     0.0000   154.0000 </r>
       <r>   -26.9803     0.0000   154.0000 </r>
       <r>   -26.7325     0.0000   154.0000 </r>
       <r>   -26.4847     0.0000   154.0000 </r>
       <r>   -26.2370     0.0000   154.0000 </r>
       <r>   -25.9892     0.0000   154.0000 </r>
       <r>   -25.7414     0.0000   154.0000 </r>
       <r>   -25.4936     0.0000   154.0000 </r>
       <r>   -25.2458     0.0000   154.0000 </r>
       <r>   -24.9980     0.0000   154.0000 </r>
       <r>   -24.7503     1.7063   154.4228 </r>
       <r>   -24.5025    44.6085   165.4761 </r>
       <r>   -24.2547    59.3146   180.1732 </r>
       <r>   -24.0069    45.1806   191.3682 </r>
       <r>   -23.7591    18.6121   195.9800 </r>
       <r>   -23.5113     0.0807   196.0000 </r>
       <r>   -23.2636     0.0000   196.0000 </r>
       <r>   -23.0158     1.0500   196.2602 </r>
       <r>   -22.7680    25.7325   202.6363 </r>
       <r>   -22.5202    46.9518   214.2701 </r>
       <r>   -22.2724    43.6409   225.0836 </r>
       <r>   -22.0246    23.0283   230.7897 </r>
       <r>   -21.7769     4.8843   231.9999 </r>
       <r>   -21.5291     0.0003   232.0000 </r>
       <r>   -21.2813     0.0000   232.0000 </r>
       <r>   -21.0335     0.0000   232.0000 </r>
       <r>   -20.7857     0.0000   232.0000 </r>
       <r>   -20.5379     0.0000   232.0000 </r>
       <r>   -20.2902     0.0000   232.0000 </r>
       <r>   -20.0424     0.0000   232.0000 </r>
       <r>   -19.7946     0.0000   232.0000 </r>
       <r>   -19.5468     0.0000   232.0000 </r>
       <r>   -19.2990     0.0000   232.0000 </r>
       <r>   -19.0512     0.0000   232.0000 </r>
       <r>   -18.8035     0.0000   232.0000 </r>
       <r>   -18.5557     0.0000   232.0000 </r>
       <r>   -18.3079     0.0000   232.0000 </r>
       <r>   -18.0601     0.0000   232.0000 </r>
       <r>   -17.8123     0.0000   232.0000 </r>
       <r>   -17.5645     0.0000   232.0000 </r>
       <r>   -17.3168     0.0000   232.0000 </r>
       <r>   -17.0690     0.0000   232.0000 </r>
       <r>   -16.8212     0.0000   232.0000 </r>
       <r>   -16.5734     0.0000   232.0000 </r>
       <r>   -16.3256     0.0000   232.0000 </r>
       <r>   -16.0778     0.0000   232.0000 </r>
       <r>   -15.8300     0.0000   232.0000 </r>
       <r>   -15.5823     0.0000   232.0000 </r>
       <r>   -15.3345     0.0000   232.0000 </r>
       <r>   -15.0867     0.0000   232.0000 </r>
       <r>   -14.8389     0.0000   232.0000 </r>
       <r>   -14.5911     0.0000   232.0000 </r>
       <r>   -14.3433     0.0000   232.0000 </r>
       <r>   -14.0956     0.0000   232.0000 </r>
       <r>   -13.8478     0.0000   232.0000 </r>
       <r>   -13.6000     0.0000   232.0000 </r>
       <r>   -13.3522     0.0000   232.0000 </r>
       <r>   -13.1044     0.0000   232.0000 </r>
       <r>   -12.8566     0.0000   232.0000 </r>
       <r>   -12.6089     0.0000   232.0000 </r>
       <r>   -12.3611     0.0000   232.0000 </r>
       <r>   -12.1133     0.0000   232.0000 </r>
       <r>   -11.8655     0.0000   232.0000 </r>
       <r>   -11.6177     0.0000   232.0000 </r>
       <r>   -11.3699     0.0000   232.0000 </r>
       <r>   -11.1222     0.0000   232.0000 </r>
       <r>   -10.8744     0.0000   232.0000 </r>
       <r>   -10.6266     0.0000   232.0000 </r>
       <r>   -10.3788     0.0000   232.0000 </r>
       <r>   -10.1310     0.0000   232.0000 </r>
       <r>    -9.8832     0.0000   232.0000 </r>
       <r>    -9.6355     0.0000   232.0000 </r>
       <r>    -9.3877     0.0000   232.0000 </r>
       <r>    -9.1399     0.0000   232.0000 </r>
       <r>    -8.8921     0.0000   232.0000 </r>
       <r>    -8.6443     0.0000   232.0000 </r>
       <r>    -8.3965     0.0000   232.0000 </r>
       <r>    -8.1488     0.0000   232.0000 </r>
       <r>    -7.9010     0.0000   232.0000 </r>
       <r>    -7.6532     0.0000   232.0000 </r>
       <r>    -7.4054     0.0000   232.0000 </r>
       <r>    -7.1576     0.0255   232.0063 </r>
       <r>    -6.9098     2.4266   232.6076 </r>
       <r>    -6.6621     5.5379   233.9798 </r>
       <r>    -6.4143     7.4516   235.8262 </r>
       <r>    -6.1665    12.3438   238.8847 </r>
       <r>    -5.9187    20.4265   243.9461 </r>
       <r>    -5.6709    25.6771   250.3084 </r>
       <r>    -5.4231    21.0694   255.5291 </r>
       <r>    -5.1754     9.5663   257.8995 </r>
       <r>    -4.9276     0.4057   258.0000 </r>
       <r>    -4.6798     0.0000   258.0000 </r>
       <r>    -4.4320     0.0000   258.0000 </r>
       <r>    -4.1842     0.0010   258.0002 </r>
       <r>    -3.9364     1.2013   258.2979 </r>
       <r>    -3.6887     5.9919   259.7826 </r>
       <r>    -3.4409     1.5355   260.1631 </r>
       <r>    -3.1931     7.2260   261.9536 </r>
       <r>    -2.9453     7.9086   263.9132 </r>
       <r>    -2.6975    14.6444   267.5418 </r>
       <r>    -2.4497    17.4074   271.8551 </r>
       <r>    -2.2020    21.0446   277.0696 </r>
       <r>    -1.9542    21.5539   282.4103 </r>
       <r>    -1.7064    21.7794   287.8069 </r>
       <r>    -1.4586    16.9744   292.0129 </r>
       <r>    -1.2108    11.9221   294.9670 </r>
       <r>    -0.9630     4.1386   295.9925 </r>
       <r>    -0.7153     0.0303   296.0000 </r>
       <r>    -0.4675     0.0000   296.0000 </r>
       <r>    -0.2197     0.0000   296.0000 </r>
       <r>     0.0281     0.0000   296.0000 </r>
       <r>     0.2759     0.0000   296.0000 </r>
       <r>     0.5237     0.0000   296.0000 </r>
       <r>     0.7714     0.0000   296.0000 </r>
       <r>     1.0192     0.2024   296.0502 </r>
       <r>     1.2670     0.7574   296.2378 </r>
       <r>     1.5148     4.7487   297.4145 </r>
       <r>     1.7626     8.7735   299.5884 </r>
       <r>     2.0104     9.7293   301.9992 </r>
       <r>     2.2582    15.1094   305.7430 </r>
       <r>     2.5059    22.6618   311.3583 </r>
       <r>     2.7537    28.7686   318.4866 </r>
       <r>     3.0015    29.4336   325.7798 </r>
       <r>     3.2493    29.0976   332.9897 </r>
       <r>     3.4971    33.2905   341.2386 </r>
       <r>     3.7449    37.5048   350.5316 </r>
       <r>     3.9926    48.4715   362.5421 </r>
       <r>     4.2404    54.2223   375.9774 </r>
       <r>     4.4882    58.1729   390.3917 </r>
       <r>     4.7360    59.5753   405.1535 </r>
       <r>     4.9838    59.1884   419.8194 </r>
       <r>     5.2316    59.3482   434.5249 </r>
       <r>     5.4793    50.1003   446.9390 </r>
       <r>     5.7271    39.2419   456.6625 </r>
       <r>     5.9749    32.5787   464.7350 </r>
       <r>     6.2227    31.0874   472.4379 </r>
       <r>     6.4705    26.0696   478.8975 </r>
       <r>     6.7183    16.0098   482.8645 </r>
       <r>     6.9660    13.9856   486.3299 </r>
       <r>     7.2138     6.1134   487.8447 </r>
       <r>     7.4616     9.4353   490.1826 </r>
       <r>     7.7094    15.3767   493.9927 </r>
       <r>     7.9572    22.2825   499.5139 </r>
       <r>     8.2050    18.9566   504.2110 </r>
       <r>     8.4527    19.1601   508.9586 </r>
       <r>     8.7005    19.7257   513.8463 </r>
       <r>     8.9483    27.4164   520.6396 </r>
       <r>     9.1961    33.9545   529.0530 </r>
       <r>     9.4439    31.9252   536.9636 </r>
       <r>     9.6917    33.8590   545.3533 </r>
       <r>     9.9394    46.7890   556.9468 </r>
       <r>    10.1872    53.1452   570.1153 </r>
       <r>    10.4350    55.4030   583.8433 </r>
       <r>    10.6828    58.0449   598.2258 </r>
       <r>    10.9306    54.8186   611.8090 </r>
       <r>    11.1784    59.0438   626.4390 </r>
       <r>    11.4261    62.4923   641.9236 </r>
       <r>    11.6739    61.8476   657.2484 </r>
       <r>    11.9217    49.1240   669.4206 </r>
       <r>    12.1695    10.3770   671.9918 </r>
       <r>    12.4173     0.0330   672.0000 </r>
       <r>    12.6651     0.0000   672.0000 </r>
       <r>    12.9128     0.0000   672.0000 </r>
       <r>    13.1606     0.0000   672.0000 </r>
       <r>    13.4084     0.0000   672.0000 </r>
       <r>    13.6562     0.0000   672.0000 </r>
       <r>    13.9040     0.0000   672.0000 </r>
       <r>    14.1518     0.0000   672.0000 </r>
       <r>    14.3995     0.0000   672.0000 </r>
       <r>    14.6473     0.0000   672.0000 </r>
       <r>    14.8951     0.0000   672.0000 </r>
       <r>    15.1429     0.0000   672.0000 </r>
       <r>    15.3907     0.0000   672.0000 </r>
      </set>
     </set>
    </array>
   </total>
  </dos>
 </calculation>
 <structure name="finalpos" >
  <crystal>
   <varray name="basis" >
    <v>       8.56003292      -0.00049561      -0.00942489 </v>
    <v>       0.00530559       8.54003874      -0.00356263 </v>
    <v>       0.02130891      -0.01856668       8.59184347 </v>
   </varray>
   <i name="volume">    628.09081508 </i>
   <varray name="rec_basis" >
    <v>       0.11682166      -0.00007270      -0.00028989 </v>
    <v>       0.00000706       0.11709559       0.00025302 </v>
    <v>       0.00012815       0.00004847       0.11638924 </v>
   </varray>
  </crystal>
  <varray name="positions" >
   <v>       0.01400248       0.98687166       0.01230867 </v>
   <v>       0.25575665       0.98697869       0.25428797 </v>
   <v>       0.27049193       0.50997494       0.24543937 </v>
   <v>       0.49693919       0.48154011       0.99652874 </v>
   <v>       0.48421217       0.23773188       0.75950851 </v>
   <v>       0.00679102       0.49462000       0.52102751 </v>
   <v>       0.50094730       0.74990263       0.73895185 </v>
   <v>       0.99813666       0.25608338       0.25103748 </v>
   <v>       0.74238527       0.75274466       0.00125368 </v>
   <v>       0.00941028       0.24209747       0.75057048 </v>
   <v>       0.75170993       0.25189129       0.50714044 </v>
   <v>       0.00237985       0.75672284       0.75143805 </v>
   <v>       0.25371608       0.50138153       0.75477769 </v>
   <v>       0.24977099       0.24452092       0.00384590 </v>
   <v>       0.49764573       0.24495541       0.24709814 </v>
   <v>       0.74343256       0.99695848       0.25133287 </v>
   <v>       0.74864467       0.24539318       0.99359970 </v>
   <v>       0.26366550       0.75577437       0.00087770 </v>
   <v>       0.25373269       0.25005250       0.49744917 </v>
   <v>       0.25083804       0.75051144       0.50070885 </v>
   <v>       0.25338987       0.25094844       0.24999504 </v>
   <v>       0.25401792       0.00005808       0.00466440 </v>
   <v>       0.00076292       0.24447306       0.00160636 </v>
   <v>       0.74242451       0.24342652       0.24678321 </v>
   <v>       0.75127404       0.00324333       0.00072840 </v>
   <v>       0.49548696       0.99598543       0.23764913 </v>
   <v>       0.00132858       0.50339942       0.24797594 </v>
   <v>       0.49935362       0.75466604       0.99505629 </v>
   <v>       0.99124235       0.00068213       0.75225998 </v>
   <v>       0.74403922       0.24111654       0.75332349 </v>
   <v>       0.75000950       0.99874406       0.49911621 </v>
   <v>       0.49821627       0.24246249       0.50061251 </v>
   <v>       0.49443086       0.00202718       0.75450979 </v>
   <v>       0.00410597       0.00060346       0.24651745 </v>
   <v>       0.49895766       0.24807276       0.99831164 </v>
   <v>       0.25549386       0.74885657       0.25037360 </v>
   <v>       0.24887725       0.50040095       0.00864976 </v>
   <v>       0.00786740       0.74970338       0.00204660 </v>
   <v>       0.74176169       0.75104877       0.25037732 </v>
   <v>       0.75701002       0.49518498       0.00212116 </v>
   <v>       0.49550604       0.50830826       0.24447981 </v>
   <v>       0.25636012       0.24171702       0.75197529 </v>
   <v>       0.25991880       0.99972386       0.50508150 </v>
   <v>       0.00679837       0.25520045       0.50093503 </v>
   <v>       0.25816144       0.75959797       0.75025300 </v>
   <v>       0.24800943       0.50042730       0.49393184 </v>
   <v>       0.00228186       0.74710368       0.49751455 </v>
   <v>       0.99817929       0.49993029       0.75369366 </v>
   <v>       0.74295547       0.76084825       0.74555510 </v>
   <v>       0.75781032       0.49869834       0.49909059 </v>
   <v>       0.49784199       0.76060747       0.50022024 </v>
   <v>       0.50254531       0.49691473       0.75359048 </v>
   <v>       0.51262319       0.01999823       0.98215147 </v>
   <v>       0.00991277       0.52176637       0.97903258 </v>
   <v>       0.48863957       0.76565531       0.27035135 </v>
   <v>       0.23641696       0.99800963       0.74186663 </v>
   <v>       0.48055590       0.99406564       0.46920566 </v>
   <v>       0.71501501       0.98619770       0.77755777 </v>
   <v>       0.00526269       0.75283280       0.24775372 </v>
   <v>       0.73313330       0.50011997       0.24432360 </v>
   <v>       0.01451577       0.00600114       0.49235286 </v>
   <v>       0.49860458       0.50554013       0.50263270 </v>
   <v>       0.74444061       0.50887068       0.75771353 </v>
   <v>       0.74985216       0.74005357       0.49687614 </v>
  </varray>
 </structure>
</modeling>
