HECN                                    
           1
     8.563095   -0.000495   -0.010158
     0.005308    8.542695   -0.004260
     0.020584   -0.019272    8.595106
   V    Nb   Ti   N    C    Cr   W 
   7   6   7  13  19   6   6
Direct configuration=     1
   0.01429012  0.98670623  0.01290004
   0.25598255  0.98647078  0.25415936
   0.27090813  0.51017543  0.24521305
   0.49696244  0.48085602  0.99657301
   0.48361587  0.23750140  0.75932871
   0.00668419  0.49450154  0.52151980
   0.50102088  0.75020620  0.73856012
   0.99805083  0.25669346  0.25100385
   0.74184180  0.75301741  0.00132101
   0.00979361  0.24178308  0.75058619
   0.75145820  0.25230278  0.50766683
   0.00246972  0.75695100  0.75143469
   0.25367635  0.50153186  0.75489459
   0.24960355  0.24428061  0.00403957
   0.49769503  0.24488586  0.24726273
   0.74342956  0.99690074  0.25169998
   0.74863602  0.24514548  0.99329639
   0.26399804  0.75591728  0.00081685
   0.25366162  0.25010131  0.49732520
   0.25053897  0.75030957  0.50081238
   0.25316454  0.25099881  0.24997792
   0.25381077  0.99993012  0.00478282
   0.00069462  0.24377280  0.00159135
   0.74254070  0.24347582  0.24690498
   0.75086899  0.00312258  0.00095414
   0.49567229  0.99642139  0.23852857
   0.00122418  0.50331453  0.24791416
   0.49946218  0.75503139  0.99462433
   0.99193346  0.00064368  0.75194696
   0.74421294  0.24139797  0.75327548
   0.75085595  0.99896642  0.49812023
   0.49820786  0.24243860  0.50058302
   0.49517486  0.00230482  0.75431465
   0.00429119  0.00049685  0.24650678
   0.49889035  0.24792020  0.99823274
   0.25558061  0.74886990  0.25037235
   0.24893219  0.50038331  0.00851521
   0.00778494  0.74992021  0.00202883
   0.74166880  0.75090311  0.25029785
   0.75684343  0.49534405  0.00203493
   0.49562277  0.50833556  0.24453864
   0.25624441  0.24185587  0.75198370
   0.25943460  0.99961748  0.50494742
   0.00655639  0.25493134  0.50098215
   0.25811711  0.75946936  0.75024990
   0.24812215  0.50037080  0.49402586
   0.00211404  0.74729002  0.49751071
   0.99817231  0.49994423  0.75377124
   0.74305263  0.76076168  0.74540348
   0.75758467  0.49870709  0.49900759
   0.49792299  0.76027459  0.50007059
   0.50261636  0.49709773  0.75362372
   0.51263856  0.02014167  0.98180617
   0.00989711  0.52243304  0.97877470
   0.48870401  0.76647601  0.27127650
   0.23686262  0.99801056  0.74161721
   0.47938293  0.99413769  0.46984702
   0.71531380  0.98575665  0.77786775
   0.00509203  0.75233945  0.24769080
   0.73281176  0.50015779  0.24390027
   0.01465204  0.00605936  0.49182152
   0.49849300  0.50542473  0.50278769
   0.74434888  0.50925803  0.75789288
   0.75011086  0.73925443  0.49668098
HECN                                    
           1
     8.561132   -0.000616   -0.010003
     0.005186    8.539359   -0.003968
     0.020734   -0.018972    8.594480
   V    Nb   Ti   N    C    Cr   W 
   7   6   7  13  19   6   6
Direct configuration=     2
   0.01421512  0.98677188  0.01282154
   0.25597620  0.98659782  0.25417283
   0.27074194  0.51011231  0.24526083
   0.49697082  0.48100663  0.99655745
   0.48371675  0.23759635  0.75928441
   0.00668021  0.49455807  0.52139010
   0.50097131  0.75016577  0.73856902
   0.99803399  0.25663449  0.25098661
   0.74196624  0.75295961  0.00130756
   0.00962423  0.24190538  0.75060161
   0.75148893  0.25226563  0.50758853
   0.00244022  0.75683990  0.75138244
   0.25371757  0.50150064  0.75486526
   0.24962100  0.24438716  0.00399609
   0.49769861  0.24489430  0.24725968
   0.74344791  0.99692669  0.25169107
   0.74866977  0.24521277  0.99331346
   0.26392920  0.75582942  0.00083263
   0.25361303  0.25013826  0.49730024
   0.25057245  0.75029467  0.50077175
   0.25326502  0.25100436  0.24997989
   0.25388667  0.99996980  0.00483941
   0.00070036  0.24385474  0.00162367
   0.74248468  0.24345128  0.24687601
   0.75098538  0.00320350  0.00091652
   0.49558942  0.99631483  0.23834355
   0.00130309  0.50339632  0.24789471
   0.49936000  0.75501593  0.99464692
   0.99178559  0.00065146  0.75202280
   0.74414909  0.24128361  0.75334108
   0.75074771  0.99890524  0.49829968
   0.49814290  0.24236496  0.50063705
   0.49495889  0.00226074  0.75428163
   0.00425979  0.00054828  0.24646125
   0.49889994  0.24793459  0.99823806
   0.25556336  0.74880501  0.25034689
   0.24888203  0.50038648  0.00862777
   0.00783078  0.74987283  0.00202072
   0.74162572  0.75099853  0.25031342
   0.75692042  0.49524268  0.00204580
   0.49548333  0.50841782  0.24447586
   0.25633384  0.24175551  0.75197773
   0.25959331  0.99965097  0.50490886
   0.00661819  0.25511805  0.50095842
   0.25819223  0.75960775  0.75020797
   0.24798622  0.50038154  0.49395376
   0.00220452  0.74716043  0.49750579
   0.99816731  0.49991629  0.75382143
   0.74300238  0.76090460  0.74540436
   0.75774506  0.49855515  0.49899995
   0.49787051  0.76043047  0.50014038
   0.50253858  0.49703269  0.75369911
   0.51257364  0.02004317  0.98193313
   0.00986001  0.52225204  0.97887531
   0.48876566  0.76637202  0.27105747
   0.23685202  0.99799037  0.74172732
   0.47960153  0.99416305  0.46988468
   0.71547777  0.98584921  0.77775010
   0.00509869  0.75231778  0.24773815
   0.73302918  0.50003525  0.24396137
   0.01452165  0.00601740  0.49193662
   0.49851051  0.50531788  0.50281299
   0.74444620  0.50911353  0.75785581
   0.75009170  0.73953389  0.49670361
HECN                                    
           1
     8.560676   -0.000644   -0.009967
     0.005158    8.538583   -0.003900
     0.020769   -0.018902    8.594335
   V    Nb   Ti   N    C    Cr   W 
   7   6   7  13  19   6   6
Direct configuration=     3
   0.01419766  0.98678717  0.01280326
   0.25597472  0.98662740  0.25417597
   0.27070324  0.51009761  0.24527195
   0.49697277  0.48104170  0.99655382
   0.48374024  0.23761846  0.75927410
   0.00667929  0.49457123  0.52135991
   0.50095977  0.75015636  0.73857109
   0.99803007  0.25662076  0.25098259
   0.74199521  0.75294615  0.00130443
   0.00958480  0.24193385  0.75060521
   0.75149608  0.25225698  0.50757031
   0.00243335  0.75681403  0.75137028
   0.25372716  0.50149337  0.75485843
   0.24962506  0.24441197  0.00398597
   0.49769944  0.24489626  0.24725897
   0.74345219  0.99693273  0.25168899
   0.74867762  0.24522844  0.99331743
   0.26391318  0.75580896  0.00083630
   0.25360172  0.25014686  0.49729443
   0.25058024  0.75029120  0.50076229
   0.25328842  0.25100566  0.24998035
   0.25390434  0.99997904  0.00485259
   0.00070169  0.24387381  0.00163119
   0.74247164  0.24344557  0.24686927
   0.75101248  0.00322234  0.00090776
   0.49557013  0.99629002  0.23830048
   0.00132146  0.50341536  0.24789018
   0.49933621  0.75501233  0.99465218
   0.99175117  0.00065327  0.75204046
   0.74413423  0.24125698  0.75335635
   0.75072250  0.99889099  0.49834145
   0.49812777  0.24234781  0.50064963
   0.49490861  0.00225047  0.75427395
   0.00425248  0.00056026  0.24645066
   0.49890217  0.24793794  0.99823930
   0.25555934  0.74878990  0.25034097
   0.24887036  0.50038722  0.00865398
   0.00784145  0.74986179  0.00201883
   0.74161569  0.75102074  0.25031704
   0.75693834  0.49521907  0.00204834
   0.49545086  0.50843697  0.24446124
   0.25635466  0.24173215  0.75197634
   0.25963027  0.99965877  0.50489988
   0.00663258  0.25516152  0.50095290
   0.25820972  0.75963997  0.75019821
   0.24795457  0.50038404  0.49393698
   0.00222558  0.74713025  0.49750464
   0.99816614  0.49990978  0.75383312
   0.74299067  0.76093789  0.74540456
   0.75778240  0.49851976  0.49899818
   0.49785829  0.76046677  0.50015662
   0.50252047  0.49701754  0.75371665
   0.51255853  0.02002023  0.98196268
   0.00985137  0.52220990  0.97889874
   0.48878002  0.76634781  0.27100649
   0.23684954  0.99798566  0.74175295
   0.47965242  0.99416895  0.46989345
   0.71551595  0.98587076  0.77772271
   0.00510024  0.75231273  0.24774917
   0.73307980  0.50000672  0.24397559
   0.01449129  0.00600763  0.49196342
   0.49851459  0.50529300  0.50281888
   0.74446886  0.50907988  0.75784718
   0.75008724  0.73959897  0.49670888
HECN                                    
           1
     8.559762   -0.000701   -0.009895
     0.005101    8.537030   -0.003764
     0.020839   -0.018762    8.594043
   V    Nb   Ti   N    C    Cr   W 
   7   6   7  13  19   6   6
Direct configuration=     4
   0.01416273  0.98681774  0.01276671
   0.25597176  0.98668657  0.25418224
   0.27062585  0.51006821  0.24529420
   0.49697668  0.48111185  0.99654658
   0.48378722  0.23766269  0.75925347
   0.00667744  0.49459757  0.52129952
   0.50093668  0.75013753  0.73857524
   0.99802223  0.25659330  0.25097456
   0.74205316  0.75291923  0.00129817
   0.00950593  0.24199081  0.75061239
   0.75151039  0.25223968  0.50753386
   0.00241961  0.75676229  0.75134596
   0.25374636  0.50147883  0.75484477
   0.24963319  0.24446160  0.00396572
   0.49770110  0.24490019  0.24725755
   0.74346073  0.99694482  0.25168484
   0.74869334  0.24525979  0.99332537
   0.26388112  0.75576804  0.00084365
   0.25357910  0.25016407  0.49728281
   0.25059583  0.75028426  0.50074337
   0.25333521  0.25100824  0.24998127
   0.25393969  0.99999753  0.00487894
   0.00070436  0.24391197  0.00164623
   0.74244555  0.24343414  0.24685578
   0.75106669  0.00326003  0.00089024
   0.49553154  0.99624039  0.23821434
   0.00135821  0.50345346  0.24788113
   0.49928863  0.75500512  0.99466270
   0.99168231  0.00065689  0.75207577
   0.74410450  0.24120372  0.75338690
   0.75067209  0.99886248  0.49842500
   0.49809751  0.24231350  0.50067478
   0.49480804  0.00222994  0.75425858
   0.00423786  0.00058421  0.24642946
   0.49890663  0.24794465  0.99824178
   0.25555131  0.74875968  0.25032912
   0.24884700  0.50038870  0.00870639
   0.00786279  0.74983973  0.00201506
   0.74159562  0.75106519  0.25032429
   0.75697419  0.49517186  0.00205340
   0.49538592  0.50847528  0.24443201
   0.25639630  0.24168541  0.75197356
   0.25970418  0.99967438  0.50488192
   0.00666136  0.25524849  0.50094184
   0.25824471  0.75970443  0.75017869
   0.24789128  0.50038904  0.49390341
   0.00226771  0.74706989  0.49750236
   0.99816381  0.49989676  0.75385649
   0.74296727  0.76100445  0.74540496
   0.75785709  0.49844899  0.49899462
   0.49783385  0.76053937  0.50018911
   0.50248424  0.49698724  0.75375175
   0.51252830  0.01997435  0.98202179
   0.00983410  0.52212559  0.97894558
   0.48880873  0.76629938  0.27090452
   0.23684460  0.99797625  0.74180422
   0.47975421  0.99418076  0.46991098
   0.71559231  0.98591388  0.77766793
   0.00510334  0.75230263  0.24777122
   0.73318104  0.49994965  0.24400404
   0.01443056  0.00598808  0.49201701
   0.49852274  0.50524323  0.50283066
   0.74451417  0.50901258  0.75782992
   0.75007832  0.73972913  0.49671941
HECN                                    
           1
     8.560503   -0.000655   -0.009954
     0.005147    8.538289   -0.003874
     0.020782   -0.018875    8.594280
   V    Nb   Ti   N    C    Cr   W 
   7   6   7  13  19   6   6
Direct configuration=     5
   0.01419106  0.98679294  0.01279635
   0.25597416  0.98663858  0.25417716
   0.27068862  0.51009205  0.24527616
   0.49697351  0.48105495  0.99655246
   0.48374912  0.23762682  0.75927020
   0.00667894  0.49457621  0.52134849
   0.50095540  0.75015280  0.73857187
   0.99802859  0.25661557  0.25098107
   0.74200616  0.75294106  0.00130325
   0.00956989  0.24194462  0.75060656
   0.75149879  0.25225371  0.50756342
   0.00243076  0.75680426  0.75136568
   0.25373079  0.50149062  0.75485585
   0.24962660  0.24442135  0.00398214
   0.49769975  0.24489700  0.24725870
   0.74345380  0.99693502  0.25168821
   0.74868059  0.24523437  0.99331893
   0.26390712  0.75580123  0.00083769
   0.25359745  0.25015011  0.49729223
   0.25058319  0.75028989  0.50075871
   0.25329726  0.25100615  0.24998053
   0.25391102  0.99998254  0.00485757
   0.00070220  0.24388102  0.00163403
   0.74246671  0.24344341  0.24686672
   0.75102273  0.00322946  0.00090445
   0.49556284  0.99628064  0.23828419
   0.00132841  0.50342256  0.24788847
   0.49932722  0.75501097  0.99465417
   0.99173815  0.00065395  0.75204713
   0.74412861  0.24124692  0.75336213
   0.75071298  0.99888560  0.49835725
   0.49812205  0.24234133  0.50065438
   0.49488960  0.00224659  0.75427104
   0.00424972  0.00056478  0.24644665
   0.49890301  0.24793921  0.99823977
   0.25555782  0.74878419  0.25033873
   0.24886594  0.50038750  0.00866389
   0.00784548  0.74985762  0.00201812
   0.74161189  0.75102914  0.25031841
   0.75694512  0.49521015  0.00204929
   0.49543859  0.50844421  0.24445571
   0.25636253  0.24172332  0.75197582
   0.25964424  0.99966172  0.50489649
   0.00663802  0.25517795  0.50095081
   0.25821633  0.75965215  0.75019452
   0.24794261  0.50038499  0.49393063
   0.00223354  0.74711885  0.49750421
   0.99816570  0.49990732  0.75383754
   0.74298625  0.76095046  0.74540464
   0.75779652  0.49850639  0.49899750
   0.49785367  0.76048049  0.50016276
   0.50251362  0.49701182  0.75372329
   0.51255282  0.02001157  0.98197386
   0.00984811  0.52219397  0.97890759
   0.48878544  0.76633866  0.27098721
   0.23684861  0.99798389  0.74176265
   0.47967166  0.99417118  0.46989676
   0.71553038  0.98587891  0.77771235
   0.00510083  0.75231082  0.24775334
   0.73309893  0.49999594  0.24398097
   0.01447981  0.00600394  0.49197355
   0.49851613  0.50528360  0.50282110
   0.74447742  0.50906716  0.75784392
   0.75008556  0.73962356  0.49671087
HECN                                    
           1
     8.562184   -0.000770   -0.009787
     0.005033    8.540678   -0.003751
     0.020955   -0.018756    8.595395
   V    Nb   Ti   N    C    Cr   W 
   7   6   7  13  19   6   6
Direct configuration=     6
   0.01410717  0.98682846  0.01270096
   0.25594400  0.98676929  0.25420884
   0.27049296  0.50999415  0.24533998
   0.49699031  0.48123582  0.99654711
   0.48390606  0.23771288  0.75926875
   0.00668862  0.49465062  0.52124127
   0.50091400  0.75010696  0.73861319
   0.99800542  0.25649595  0.25098611
   0.74216428  0.75287733  0.00129036
   0.00946448  0.24206128  0.75058904
   0.75156442  0.25210939  0.50746085
   0.00241855  0.75670563  0.75135281
   0.25369373  0.50144702  0.75483544
   0.24965659  0.24451898  0.00392730
   0.49771208  0.24491199  0.24724640
   0.74346715  0.99699419  0.25163518
   0.74869841  0.24530089  0.99337107
   0.26378588  0.75574471  0.00084554
   0.25355154  0.25015601  0.49729738
   0.25064838  0.75033052  0.50070231
   0.25337703  0.25099255  0.24998200
   0.25398564  0.00002191  0.00490197
   0.00071488  0.24401838  0.00164996
   0.74240589  0.24339885  0.24684703
   0.75114843  0.00327015  0.00083738
   0.49550412  0.99619236  0.23808836
   0.00139337  0.50348870  0.24787887
   0.49928329  0.75496626  0.99470961
   0.99153887  0.00065509  0.75212265
   0.74406788  0.24114418  0.75339042
   0.75056963  0.99878840  0.49860134
   0.49808027  0.24229987  0.50070591
   0.49475588  0.00217518  0.75428277
   0.00420738  0.00059818  0.24643660
   0.49892579  0.24797727  0.99824965
   0.25553025  0.74879105  0.25032947
   0.24881286  0.50038258  0.00870705
   0.00786584  0.74981769  0.00200481
   0.74158419  0.75107619  0.25032125
   0.75701891  0.49514747  0.00206823
   0.49546597  0.50847997  0.24444797
   0.25635078  0.24166484  0.75196194
   0.25972747  0.99969679  0.50490786
   0.00668226  0.25528058  0.50092830
   0.25825175  0.75972407  0.75016971
   0.24787598  0.50039448  0.49389391
   0.00230938  0.74701732  0.49750706
   0.99818120  0.49989014  0.75384169
   0.74295470  0.76097816  0.74542204
   0.75787455  0.49856112  0.49900057
   0.49783826  0.76056616  0.50020635
   0.50252225  0.49697100  0.75375401
   0.51249748  0.01990343  0.98204332
   0.00981942  0.52198258  0.97902876
   0.48881681  0.76618479  0.27078412
   0.23679354  0.99798264  0.74186154
   0.47998003  0.99422454  0.46982246
   0.71555556  0.98606525  0.77763124
   0.00509708  0.75236071  0.24775784
   0.73320986  0.49993152  0.24407785
   0.01442648  0.00599340  0.49207607
   0.49858579  0.50523945  0.50279120
   0.74451603  0.50894015  0.75778275
   0.75002333  0.73981224  0.49672635
HECN                                    
           1
     8.561624   -0.000732   -0.009843
     0.005071    8.539882   -0.003792
     0.020898   -0.018796    8.595024
   V    Nb   Ti   N    C    Cr   W 
   7   6   7  13  19   6   6
Direct configuration=     7
   0.01413512  0.98681662  0.01273274
   0.25595405  0.98672574  0.25419828
   0.27055815  0.51002677  0.24531871
   0.49698471  0.48117556  0.99654889
   0.48385377  0.23768421  0.75926924
   0.00668539  0.49462583  0.52127700
   0.50092780  0.75012223  0.73859942
   0.99801314  0.25653580  0.25098443
   0.74211160  0.75289856  0.00129466
   0.00949960  0.24202241  0.75059488
   0.75154255  0.25215747  0.50749503
   0.00242262  0.75673849  0.75135710
   0.25370608  0.50146155  0.75484224
   0.24964660  0.24448645  0.00394558
   0.49770797  0.24490700  0.24725050
   0.74346270  0.99697448  0.25165285
   0.74869247  0.24527872  0.99335370
   0.26382627  0.75576354  0.00084293
   0.25356684  0.25015405  0.49729566
   0.25062666  0.75031698  0.50072111
   0.25335045  0.25099708  0.24998151
   0.25396078  0.00000879  0.00488717
   0.00071065  0.24397262  0.00164465
   0.74242616  0.24341369  0.24685359
   0.75110655  0.00325659  0.00085973
   0.49552369  0.99622177  0.23815361
   0.00137172  0.50346667  0.24788207
   0.49929793  0.75498116  0.99469114
   0.99160527  0.00065471  0.75209749
   0.74408811  0.24117841  0.75338099
   0.75061739  0.99882079  0.49852001
   0.49809419  0.24231368  0.50068874
   0.49480044  0.00219897  0.75427886
   0.00422148  0.00058706  0.24643995
   0.49891820  0.24796459  0.99824635
   0.25553944  0.74878877  0.25033255
   0.24883055  0.50038422  0.00869267
   0.00785906  0.74983100  0.00200924
   0.74159342  0.75106052  0.25032030
   0.75699432  0.49516835  0.00206192
   0.49545685  0.50846805  0.24445055
   0.25635470  0.24168432  0.75196656
   0.25969974  0.99968511  0.50490407
   0.00666752  0.25524639  0.50093580
   0.25823995  0.75970011  0.75017798
   0.24789818  0.50039132  0.49390615
   0.00228411  0.74705114  0.49750611
   0.99817604  0.49989586  0.75384031
   0.74296521  0.76096893  0.74541624
   0.75784855  0.49854289  0.49899955
   0.49784340  0.76053762  0.50019183
   0.50251938  0.49698460  0.75374377
   0.51251592  0.01993946  0.98202017
   0.00982898  0.52205301  0.97898838
   0.48880636  0.76623605  0.27085179
   0.23681189  0.99798306  0.74182859
   0.47987728  0.99420676  0.46984722
   0.71554717  0.98600317  0.77765827
   0.00509833  0.75234409  0.24775634
   0.73317290  0.49995298  0.24404557
   0.01444425  0.00599691  0.49204191
   0.49856258  0.50525416  0.50280117
   0.74450317  0.50898247  0.75780313
   0.75004406  0.73974938  0.49672119
HECN                                    
           1
     8.560448   -0.000695   -0.009729
     0.005106    8.539446   -0.003778
     0.021007   -0.018782    8.593520
   V    Nb   Ti   N    C    Cr   W 
   7   6   7  13  19   6   6
Direct configuration=     8
   0.01407995  0.98682982  0.01262972
   0.25591537  0.98679806  0.25424273
   0.27046493  0.50995529  0.24537226
   0.49699093  0.48130783  0.99655657
   0.48398064  0.23773681  0.75932458
   0.00671205  0.49466914  0.52123291
   0.50091038  0.75007243  0.73866978
   0.99799929  0.25640318  0.25101285
   0.74224359  0.75283469  0.00128284
   0.00947005  0.24208686  0.75055151
   0.75162919  0.25200428  0.50739327
   0.00242344  0.75668651  0.75138474
   0.25364894  0.50142104  0.75483491
   0.24969756  0.24455489  0.00390332
   0.49771133  0.24493658  0.24721941
   0.74345896  0.99702713  0.25156171
   0.74868139  0.24532880  0.99342623
   0.26372023  0.75573515  0.00085340
   0.25354501  0.25013744  0.49732703
   0.25070738  0.75038581  0.50066737
   0.25338419  0.25097400  0.24998010
   0.25400245  0.00003651  0.00489849
   0.00072978  0.24411354  0.00163917
   0.74238780  0.24337745  0.24684705
   0.75119675  0.00324860  0.00078936
   0.49550178  0.99616686  0.23800242
   0.00140172  0.50348941  0.24788220
   0.49931883  0.75492592  0.99476281
   0.99143875  0.00065263  0.75214880
   0.74405473  0.24112210  0.75336675
   0.75048106  0.99873968  0.49875088
   0.49809224  0.24232656  0.50071598
   0.49476707  0.00213609  0.75433154
   0.00418214  0.00058811  0.24648750
   0.49894393  0.24801499  0.99824754
   0.25551853  0.74884231  0.25034120
   0.24879479  0.50037710  0.00867552
   0.00784808  0.74977613  0.00199739
   0.74159763  0.75104629  0.25032025
   0.75704213  0.49516530  0.00208408
   0.49555565  0.50844560  0.24449019
   0.25629508  0.24168572  0.75195332
   0.25970262  0.99970984  0.50494940
   0.00667940  0.25524677  0.50092300
   0.25822401  0.75968121  0.75017538
   0.24792223  0.50040220  0.49391159
   0.00231212  0.74702506  0.49750781
   0.99819226  0.49989736  0.75380757
   0.74296037  0.76089607  0.74545069
   0.75783672  0.49870709  0.49901339
   0.49786355  0.76051263  0.50018444
   0.50258051  0.49697692  0.75371806
   0.51249767  0.01987944  0.98202477
   0.00982394  0.52190908  0.97906715
   0.48878175  0.76608524  0.27071931
   0.23672438  0.99800170  0.74188380
   0.48014098  0.99424673  0.46967497
   0.71542155  0.98618147  0.77762571
   0.00509732  0.75245710  0.24773162
   0.73315853  0.49997078  0.24414171
   0.01448174  0.00601494  0.49211598
   0.49862968  0.50529775  0.50273892
   0.74448236  0.50892594  0.75774773
   0.74996095  0.73981179  0.49672741
HECN                                    
           1
     8.560111   -0.000685   -0.009696
     0.005117    8.539321   -0.003774
     0.021039   -0.018778    8.593088
   V    Nb   Ti   N    C    Cr   W 
   7   6   7  13  19   6   6
Direct configuration=     9
   0.01406411  0.98683362  0.01260013
   0.25590426  0.98681883  0.25425549
   0.27043815  0.50993476  0.24538765
   0.49699272  0.48134582  0.99655878
   0.48401708  0.23775192  0.75934047
   0.00671971  0.49468158  0.52122025
   0.50090537  0.75005813  0.73868999
   0.99799531  0.25636509  0.25102102
   0.74228150  0.75281635  0.00127945
   0.00946156  0.24210537  0.75053905
   0.75165407  0.25196029  0.50736405
   0.00242367  0.75667158  0.75139268
   0.25363253  0.50140940  0.75483280
   0.24971220  0.24457455  0.00389118
   0.49771230  0.24494508  0.24721047
   0.74345789  0.99704225  0.25153553
   0.74867821  0.24534318  0.99344706
   0.26368978  0.75572699  0.00085641
   0.25353875  0.25013267  0.49733604
   0.25073056  0.75040558  0.50065193
   0.25339388  0.25096737  0.24997970
   0.25401442  0.00004448  0.00490175
   0.00073528  0.24415401  0.00163760
   0.74237678  0.24336705  0.24684518
   0.75122266  0.00324630  0.00076915
   0.49549549  0.99615109  0.23795900
   0.00141034  0.50349594  0.24788224
   0.49932484  0.75491006  0.99478339
   0.99139092  0.00065203  0.75216354
   0.74404514  0.24110592  0.75336266
   0.75044190  0.99871639  0.49881719
   0.49809168  0.24233026  0.50072381
   0.49475749  0.00211803  0.75434667
   0.00417084  0.00058841  0.24650116
   0.49895131  0.24802946  0.99824788
   0.25551252  0.74885768  0.25034368
   0.24878452  0.50037506  0.00867059
   0.00784492  0.74976037  0.00199399
   0.74159883  0.75104221  0.25032024
   0.75705587  0.49516442  0.00209045
   0.49558403  0.50843915  0.24450158
   0.25627796  0.24168612  0.75194952
   0.25970345  0.99971695  0.50496242
   0.00668281  0.25524688  0.50091932
   0.25821944  0.75967578  0.75017464
   0.24792914  0.50040532  0.49391315
   0.00232016  0.74701757  0.49750830
   0.99819692  0.49989779  0.75379817
   0.74295897  0.76087515  0.74546058
   0.75783333  0.49875425  0.49901736
   0.49786933  0.76050545  0.50018232
   0.50259807  0.49697471  0.75371068
   0.51249243  0.01986220  0.98202610
   0.00982250  0.52186775  0.97908977
   0.48877468  0.76604193  0.27068126
   0.23669924  0.99800705  0.74189966
   0.48021672  0.99425821  0.46962550
   0.71538548  0.98623268  0.77761636
   0.00509703  0.75248956  0.24772451
   0.73315440  0.49997589  0.24416933
   0.01449251  0.00602012  0.49213726
   0.49864895  0.50531027  0.50272104
   0.74447639  0.50890971  0.75773181
   0.74993708  0.73982972  0.49672919
HECN                                    
           1
     8.560213   -0.000688   -0.009706
     0.005113    8.539359   -0.003775
     0.021029   -0.018779    8.593218
   V    Nb   Ti   N    C    Cr   W 
   7   6   7  13  19   6   6
Direct configuration=    10
   0.01406890  0.98683247  0.01260907
   0.25590762  0.98681256  0.25425164
   0.27044624  0.50994096  0.24538300
   0.49699218  0.48133434  0.99655811
   0.48400608  0.23774736  0.75933567
   0.00671739  0.49467782  0.52122407
   0.50090689  0.75006245  0.73868389
   0.99799652  0.25637659  0.25101855
   0.74227005  0.75282189  0.00128048
   0.00946412  0.24209978  0.75054281
   0.75164656  0.25197358  0.50737288
   0.00242360  0.75667609  0.75139028
   0.25363749  0.50141292  0.75483344
   0.24970778  0.24456861  0.00389485
   0.49771201  0.24494251  0.24721317
   0.74345821  0.99703768  0.25154344
   0.74867917  0.24533884  0.99344077
   0.26369898  0.75572945  0.00085550
   0.25354064  0.25013411  0.49733332
   0.25072356  0.75039961  0.50065659
   0.25339095  0.25096938  0.24997982
   0.25401081  0.00004207  0.00490076
   0.00073362  0.24414179  0.00163807
   0.74238011  0.24337019  0.24684574
   0.75121483  0.00324700  0.00077525
   0.49549739  0.99615585  0.23797212
   0.00140774  0.50349396  0.24788223
   0.49932302  0.75491485  0.99477717
   0.99140537  0.00065221  0.75215909
   0.74404804  0.24111081  0.75336390
   0.75045373  0.99872343  0.49879716
   0.49809185  0.24232914  0.50072144
   0.49476038  0.00212349  0.75434210
   0.00417426  0.00058832  0.24649703
   0.49894908  0.24802509  0.99824778
   0.25551434  0.74885304  0.25034293
   0.24878762  0.50037568  0.00867208
   0.00784588  0.74976513  0.00199502
   0.74159847  0.75104344  0.25032024
   0.75705172  0.49516468  0.00208852
   0.49557546  0.50844110  0.24449814
   0.25628313  0.24168600  0.75195067
   0.25970320  0.99971480  0.50495849
   0.00668178  0.25524685  0.50092043
   0.25822082  0.75967742  0.75017487
   0.24792705  0.50040438  0.49391268
   0.00231773  0.74701984  0.49750815
   0.99819551  0.49989766  0.75380101
   0.74295939  0.76088147  0.74545759
   0.75783435  0.49874000  0.49901616
   0.49786759  0.76050762  0.50018296
   0.50259277  0.49697538  0.75371291
   0.51249401  0.01986741  0.98202570
   0.00982293  0.52188023  0.97908294
   0.48877681  0.76605501  0.27069275
   0.23670684  0.99800543  0.74189487
   0.48019385  0.99425474  0.46964044
   0.71539637  0.98621721  0.77761918
   0.00509712  0.75247975  0.24772666
   0.73315564  0.49997434  0.24416099
   0.01448926  0.00601855  0.49213083
   0.49864313  0.50530649  0.50272644
   0.74447819  0.50891461  0.75773662
   0.74994429  0.73982430  0.49672865
HECN                                    
           1
     8.560143   -0.000686   -0.009699
     0.005116    8.539333   -0.003774
     0.021036   -0.018778    8.593129
   V    Nb   Ti   N    C    Cr   W 
   7   6   7  13  19   6   6
Direct configuration=    11
   0.01406563  0.98683325  0.01260296
   0.25590532  0.98681684  0.25425427
   0.27044071  0.50993672  0.24538618
   0.49699254  0.48134219  0.99655857
   0.48401360  0.23775048  0.75933895
   0.00671897  0.49468039  0.52122146
   0.50090585  0.75005950  0.73868806
   0.99799569  0.25636873  0.25102024
   0.74227788  0.75281810  0.00127978
   0.00946237  0.24210360  0.75054024
   0.75165169  0.25196449  0.50736684
   0.00242365  0.75667300  0.75139192
   0.25363410  0.50141052  0.75483300
   0.24971080  0.24457267  0.00389234
   0.49771220  0.24494427  0.24721133
   0.74345799  0.99704080  0.25153804
   0.74867852  0.24534180  0.99344507
   0.26369269  0.75572777  0.00085612
   0.25353935  0.25013313  0.49733518
   0.25072834  0.75040369  0.50065341
   0.25339295  0.25096801  0.24997973
   0.25401328  0.00004371  0.00490143
   0.00073475  0.24415014  0.00163775
   0.74237783  0.24336804  0.24684536
   0.75122018  0.00324652  0.00077108
   0.49549609  0.99615260  0.23796315
   0.00140952  0.50349531  0.24788224
   0.49932426  0.75491158  0.99478142
   0.99139549  0.00065209  0.75216213
   0.74404606  0.24110747  0.75336305
   0.75044564  0.99871862  0.49881085
   0.49809174  0.24232991  0.50072306
   0.49475840  0.00211976  0.75434522
   0.00417192  0.00058838  0.24649985
   0.49895061  0.24802808  0.99824785
   0.25551310  0.74885621  0.25034344
   0.24878550  0.50037526  0.00867106
   0.00784523  0.74976187  0.00199431
   0.74159872  0.75104260  0.25032024
   0.75705455  0.49516450  0.00208984
   0.49558132  0.50843976  0.24450049
   0.25627960  0.24168609  0.75194988
   0.25970337  0.99971627  0.50496118
   0.00668248  0.25524687  0.50091967
   0.25821987  0.75967630  0.75017471
   0.24792848  0.50040502  0.49391300
   0.00231939  0.74701829  0.49750825
   0.99819647  0.49989775  0.75379907
   0.74295911  0.76087715  0.74545963
   0.75783365  0.49874974  0.49901698
   0.49786878  0.76050614  0.50018252
   0.50259639  0.49697492  0.75371138
   0.51249293  0.01986385  0.98202597
   0.00982263  0.52187170  0.97908761
   0.48877535  0.76604607  0.27068489
   0.23670165  0.99800654  0.74189815
   0.48020948  0.99425711  0.46963023
   0.71538893  0.98622778  0.77761725
   0.00509706  0.75248645  0.24772519
   0.73315479  0.49997540  0.24416669
   0.01449148  0.00601962  0.49213523
   0.49864711  0.50530907  0.50272275
   0.74447696  0.50891126  0.75773333
   0.74993936  0.73982800  0.49672902
HECN                                    
           1
     8.560178   -0.000687   -0.009702
     0.005115    8.539346   -0.003775
     0.021033   -0.018778    8.593174
   V    Nb   Ti   N    C    Cr   W 
   7   6   7  13  19   6   6
Direct configuration=    12
   0.01406726  0.98683286  0.01260602
   0.25590647  0.98681470  0.25425296
   0.27044348  0.50993884  0.24538459