HECN                                    
           1
     8.932500    0.000000    0.000000
     0.005753    9.055598    0.000000
     0.032102   -0.015743    8.937128
   V    Nb   Hf   N    C    Cr   Mo
   7   6   7  13  19   6   6
Direct configuration=     1
   0.99688001  0.99204997  0.99924002
   0.25398003  0.99714995  0.24912000
   0.24803003  0.50165000  0.24955001
   0.50501006  0.49745998  0.99834003
   0.50479003  0.24631001  0.74710002
   0.99427992  0.50449999  0.49779000
   0.49950005  0.75481999  0.74817004
   0.99437004  0.23617001  0.26379999
   0.75718000  0.74102998  0.01100000
   0.00201000  0.25541000  0.73894001
   0.75307001  0.26163001  0.50533002
   0.99514004  0.74492004  0.74511997
   0.25679999  0.49462002  0.74545002
   0.24788999  0.24839000  0.99657997
   0.50833000  0.25676999  0.25376001
   0.74879004  0.98787999  0.26967001
   0.75719000  0.25603001  0.99591997
   0.24762001  0.74973999  0.99974006
   0.25272001  0.24823001  0.50015003
   0.24457999  0.75048999  0.49983999
   0.24982001  0.24942998  0.24825000
   0.26146999  0.99984002  0.99295996
   0.00281000  0.25024000  0.00130000
   0.75313998  0.24617000  0.25492002
   0.74767001  0.99748000  0.01202000
   0.50714994  0.99977000  0.24673000
   0.99051999  0.48088002  0.24100998
   0.50519005  0.76130999  0.00855000
   0.98896989  0.00202000  0.73708999
   0.75744996  0.24437997  0.74896999
   0.73632001  0.00417000  0.51063000
   0.50563996  0.23264999  0.49544997
   0.50008998  0.00061000  0.73471998
   0.99720000  0.99771992  0.25899999
   0.50427997  0.24673000  0.00262000
   0.25133999  0.74958002  0.24910999
   0.24328000  0.50072997  0.99510994
   0.99837005  0.74313996  0.00460000
   0.75633000  0.73891003  0.25767000
   0.75839004  0.50315998  0.00288000
   0.50700002  0.50333002  0.25878999
   0.24900999  0.25315000  0.74854000
   0.24446000  0.99823996  0.50287998
   0.99804009  0.24229999  0.50128003
   0.24177002  0.75340997  0.75018002
   0.25841001  0.50062002  0.50129001
   0.99000004  0.76215003  0.49746000
   0.99203996  0.50055999  0.75138002
   0.75036005  0.74888000  0.74756004
   0.74036002  0.50197000  0.50067003
   0.50575006  0.74958002  0.49720000
   0.50501003  0.50217998  0.73912003
   0.51588997  0.01358000  0.98075008
   0.99841994  0.50976998  0.98613004
   0.50379003  0.73926997  0.25905001
   0.23780002  0.01082000  0.74607998
   0.47957999  0.98308000  0.49717999
   0.74279003  0.97869994  0.76450995
   0.99864998  0.77573999  0.26102000
   0.73551001  0.51468004  0.26666001
   0.02362000  0.99783001  0.49557002
   0.50539000  0.52833005  0.49917999
   0.73876003  0.52828003  0.73814999
   0.75400003  0.72937999  0.49116997
HECN                                    
           1
     8.365541    0.004635   -0.006345
     0.010087    8.445976    0.003684
     0.023707   -0.011027    8.391128
   V    Nb   Hf   N    C    Cr   Mo
   7   6   7  13  19   6   6
Direct configuration=     2
   0.99685501  0.98844502  0.99870550
   0.25174986  0.99213176  0.24954029
   0.25119486  0.50640011  0.24872809
   0.50426907  0.49392477  0.99729068
   0.50151315  0.24370987  0.75110778
   0.99460856  0.50192502  0.50127443
   0.49991162  0.75755286  0.74736496
   0.99922311  0.23821902  0.26177065
   0.75321080  0.74415526  0.00920150
   0.00261842  0.25331127  0.73930871
   0.75158538  0.25836822  0.50994073
   0.99856391  0.74778584  0.74747416
   0.25754507  0.49672185  0.74904399
   0.24877177  0.24538518  0.99952718
   0.50328177  0.25168296  0.25243842
   0.74096102  0.99079079  0.26704003
   0.75634930  0.25324519  0.99218210
   0.25463850  0.75398443  0.00091976
   0.25680657  0.24883610  0.49765378
   0.24864647  0.74941122  0.49846156
   0.25088961  0.24997061  0.24903090
   0.25878743  0.00058490  0.99469974
   0.00217811  0.24765033  0.00166556
   0.75185587  0.24514998  0.25375352
   0.74910399  0.99727972  0.00655991
   0.50113285  0.99966151  0.24894986
   0.99481493  0.48102381  0.24490262
   0.50467571  0.75850240  0.00540246
   0.98842569  0.00232030  0.74320434
   0.75211804  0.24405671  0.74988548
   0.73662313  0.00384832  0.50983169
   0.50397332  0.23277533  0.49977437
   0.50363137 -0.00000036  0.73788469
   0.00262655  0.00029216  0.25045984
   0.50433044  0.24846632 -0.00409564
   0.25272134  0.74872958  0.24990730
   0.24609901  0.50010491  0.00010200
   0.99795412  0.74504500  0.00424815
   0.75189902  0.74244243  0.25307542
   0.75545252  0.50370352  0.00275156
   0.49781138  0.50751397  0.25072393
   0.25351427  0.24939963  0.74838862
   0.25395125  0.99785086  0.50229544
   0.99864100  0.24863075  0.50075683
   0.24674142  0.75395216  0.74996776
   0.25285924  0.50036633  0.49534956
   0.99369712  0.75469075  0.49995981
   0.99359508  0.50110652  0.74976947
   0.74327323  0.75753307  0.74971376
   0.75061318  0.49831700  0.50257154
   0.50243382  0.75685885  0.49860491
   0.50282976  0.50124025  0.74689276
   0.51678638  0.01652731  0.97561736
   0.99946588  0.51442287  0.98202399
   0.50424392  0.73585529  0.25787166
   0.23672847  0.01101775  0.74786854
   0.47624320  0.98167328  0.50007390
   0.73853248  0.97398870  0.76654842
   0.00322908  0.77487268  0.25611178
   0.73761525  0.51247899  0.26077301
   0.02263738  0.00029758  0.49962220
   0.49982525  0.52689826  0.49960615
   0.73806884  0.52258708  0.74390963
   0.75506624  0.73432559  0.49401106
HECN                                    
           1
     8.670209    0.002144   -0.002936
     0.007758    8.773571    0.001704
     0.028218   -0.013561    8.684534
   V    Nb   Hf   N    C    Cr   Mo
   7   6   7  13  19   6   6
Direct configuration=     3
   0.99686842  0.99052190  0.99901052
   0.25302770  0.99502245  0.24929943
   0.24938081  0.50366407  0.24919833
   0.50469356  0.49596112  0.99789069
   0.50339079  0.24520796  0.74881474
   0.99441762  0.50340961  0.49927936
   0.49967671  0.75597821  0.74782625
   0.99644001  0.23703947  0.26293053
   0.75549010  0.74235289  0.01023337
   0.00226847  0.25452076  0.73909690
   0.75243416  0.26024824  0.50730165
   0.99659922  0.74613635  0.74612600
   0.25711665  0.49551201  0.74698723
   0.24826354  0.24711746  0.99783923
   0.50617733  0.25461198  0.25319572
   0.74545535  0.98911057  0.26854941
   0.75683243  0.25484848  0.99432109
   0.25061221  0.75154146  0.00024260
   0.25446303  0.24848754  0.49908086
   0.24631342  0.75003369  0.49924845
   0.25027572  0.24965966  0.24858363
   0.26032614  0.00015533  0.99370535
   0.00253968  0.24914229  0.00145595
   0.75259287  0.24573697  0.25442145
   0.74828353  0.99739417  0.00968427
   0.50458439  0.99972269  0.24768193
   0.99234886  0.48094331  0.24267288
   0.50497131  0.76011906  0.00720344
   0.98873535  0.00214866  0.73970517
   0.75517694  0.24424152  0.74936374
   0.73644945  0.00403355  0.51028838
   0.50492776  0.23270369  0.49730010
   0.50159776  0.00035323  0.73607171
  -0.00048256 -0.00119033  0.25534600
   0.50430500  0.24746422 -0.00025159
   0.25192811  0.74922021  0.24945015
   0.24447908  0.50046720 -0.00275654
   0.99819355  0.74394717  0.00445019
   0.75444465  0.74040464  0.25570790
   0.75713828  0.50338939  0.00282648
   0.50308866  0.50509840  0.25534551
   0.25092860  0.25156182  0.74847236
   0.24850538  0.99807788  0.50262578
   0.99829849  0.24498328  0.50105762
   0.24388914  0.75364128  0.75008722
   0.25604676  0.50050924  0.49875186
   0.99157224  0.75899029  0.49852557
   0.99270365  0.50079171  0.75069071
   0.74734145  0.75254584  0.74848637
   0.74472798  0.50042542  0.50147785
   0.50433839  0.75266439  0.49780411
   0.50407705  0.50178298  0.74244483
   0.51627524  0.01482816  0.97855537
   0.99886905  0.51174134  0.98437477
   0.50398289  0.73782253  0.25854502
   0.23734259  0.01090393  0.74684539
   0.47815609  0.98248347  0.49841869
   0.74097300  0.97670231  0.76538238
   0.00060351  0.77537258  0.25891874
   0.73640916  0.51374631  0.26414090
   0.02320022 -0.00112341  0.49730403
   0.50301761  0.52772156  0.49936430
   0.73846106  0.52586838  0.74061202
   0.75445481  0.73147719  0.49238578
HECN                                    
           1
     8.672262    0.003036   -0.006530
     0.008673    8.728907    0.003554
     0.024627   -0.011658    8.698042
   V    Nb   Hf   N    C    Cr   Mo
   7   6   7  13  19   6   6
Direct configuration=     4
   0.99788328  0.98710623  0.99762554
   0.25064846  0.98994195  0.24936676
   0.25330549  0.50877308  0.24764927
   0.50313585  0.49219429  0.99691168
   0.49908531  0.24239139  0.75338351
   0.99637991  0.50008875  0.50308006
   0.49950564  0.75943651  0.74736115
   0.00187704  0.24025022  0.25818167
   0.74958450  0.74770067  0.00706542
   0.00394434  0.25122170  0.74216951
   0.75002429  0.25577673  0.51116212
   0.99953023  0.75059114  0.74988429
   0.25648017  0.49803090  0.75124423
   0.24910128  0.24414709  0.00068316
   0.50031095  0.25026797  0.25085867
   0.73999684  0.99291638  0.26410251
   0.75584029  0.25132234  0.99185234
   0.25868858  0.75593936  0.00118183
   0.25822390  0.24949084  0.49702588
   0.24977141  0.74911792  0.49833965
   0.25134340  0.25026642  0.24902336
   0.25791205  0.00058050  0.99565182
   0.00217476  0.24680538  0.00209805
   0.75126432  0.24521666  0.25294183
   0.75001539  0.99719335  0.00341332
   0.49599623  0.99849450  0.24894902
   0.99737134  0.48388089  0.24631401
   0.50429656  0.75755065  0.00371372
   0.98785440  0.00237019  0.74760204
   0.74857113  0.24401282  0.74989065
   0.73741266  0.00273860  0.51215688
   0.50368289  0.23347300  0.50303125
   0.50492134 -0.00018810  0.73988191
   0.00483412  0.00216508  0.24578839
   0.50368472  0.24984119 -0.00759607
   0.25488059  0.74828150  0.24977768
   0.24736433  0.49998735  0.00347418
   0.99939679  0.74618929  0.00440239
   0.74911403  0.74518719  0.25130840
   0.75423900  0.50289048  0.00292398
   0.49169815  0.50932715  0.24603123
   0.25700480  0.24673867  0.74875215
   0.25916178  0.99781972  0.50239393
   0.99969401  0.25271957  0.50047141
   0.25060555  0.75548391  0.75021979
   0.24937950  0.50008664  0.49218230
   0.99603624  0.75034383  0.50089573
   0.99498101  0.50116893  0.74889269
   0.74010754  0.76162227  0.75029217
   0.75479719  0.49673669  0.50295766
   0.50141668  0.76210917  0.49934953
   0.50111742  0.50030495  0.75130977
   0.51599980  0.01712611  0.97284748
   0.00030052  0.51585322  0.98050918
   0.50365240  0.73503994  0.25632783
   0.23637663  0.00999731  0.74934103
   0.47625969  0.98204657  0.50141053
   0.73580864  0.97415434  0.76797406
   0.00545730  0.76959732  0.25188833
   0.73951229  0.50776038  0.25557000
   0.01912412  0.00236024  0.50118076
   0.49790559  0.52136759  0.49887509
   0.73953819  0.51752392  0.74958652
   0.75441755  0.73906888  0.49686490
HECN                                    
           1
     8.672568    0.003169   -0.007066
     0.008810    8.722248    0.003830
     0.024092   -0.011374    8.700056
   V    Nb   Hf   N    C    Cr   Mo
   7   6   7  13  19   6   6
Direct configuration=     5
   0.99803451  0.98659444  0.99741955
   0.25029393  0.98918070  0.24937680
   0.25389027  0.50953863  0.24741877
   0.50290368  0.49162990  0.99676598
   0.49844393  0.24196926  0.75406340
   0.99667267  0.49959098  0.50364603
   0.49948005  0.75995474  0.74729179
   0.00268707  0.24073141  0.25747502
   0.74870400  0.74850220  0.00659333
   0.00419437  0.25072723  0.74262708
   0.74966542  0.25510661  0.51173675
   0.99996725  0.75125850  0.75044376
   0.25638553  0.49840822  0.75187777
   0.24922637  0.24370189  0.00110663
   0.49943651  0.24961720  0.25051058
   0.73918293  0.99348689  0.26344013
   0.75569231  0.25079406  0.99148492
   0.25989233  0.75659821  0.00132199
   0.25878430  0.24964118  0.49672020
   0.25028677  0.74898067  0.49820462
   0.25150255  0.25035731  0.24908886
   0.25755235  0.00064418  0.99594139
   0.00212045  0.24645519  0.00219368
   0.75106623  0.24513877  0.25272152
   0.75027313  0.99716344  0.00248000
   0.49471629  0.99831056  0.24913714
   0.99812010  0.48432088  0.24685622
   0.50419582  0.75716591  0.00319431
   0.98772359  0.00240313  0.74877744
   0.74758659  0.24397864  0.74996868
   0.73755636  0.00254449  0.51243510
   0.50349769  0.23358811  0.50388423
   0.50541696 -0.00026939  0.74044928
   0.00562590  0.00266811  0.24436595
   0.50359178  0.25019762 -0.00868942
   0.25532068  0.74814079  0.24982665
   0.24779476  0.49991519  0.00440182
   0.99957609  0.74652524  0.00439528
   0.74831916  0.74590406  0.25065305
   0.75380689  0.50281576  0.00293833
   0.48999978  0.50996129  0.24464396
   0.25791053  0.24601584  0.74879433
   0.26075007  0.99778088  0.50236009
   0.99990185  0.25387882  0.50038399
   0.25160659  0.75575991  0.75023988
   0.24838536  0.50002364  0.49120401
   0.99670187  0.74904805  0.50124908
   0.99532032  0.50122548  0.74862518
   0.73902931  0.76298238  0.75056023
   0.75629813  0.49618375  0.50317867
   0.50098115  0.76352442  0.49957909
   0.50067687  0.50008323  0.75262919
   0.51595835  0.01747064  0.97199776
   0.00051357  0.51646947  0.97993374
   0.50360305  0.73462305  0.25599787
   0.23623283  0.00986139  0.74971248
   0.47597723  0.98198103  0.50185577
   0.73503911  0.97377254  0.76835960
   0.00618040  0.76873208  0.25084233
   0.73997437  0.50686365  0.25429459
   0.01851677  0.00288218  0.50175745
   0.49714373  0.52041557  0.49880216
   0.73969943  0.51627323  0.75092271
   0.75441215  0.74020631  0.49753137
HECN                                    
           1
     8.729404   -0.004164   -0.011478
     0.001471    8.778834    0.005799
     0.019866   -0.009518    8.740484
   V    Nb   Hf   N    C    Cr   Mo
   7   6   7  13  19   6   6
Direct configuration=     6
   0.00024428  0.98388250  0.99636758
   0.24816211  0.98565991  0.25106444
   0.25724424  0.51400043  0.24546575
   0.50201671  0.48804649  0.99610859
   0.49412976  0.24041339  0.75641715
   0.00016546  0.49759829  0.50753555
   0.49920880  0.76170922  0.74469501
   0.00259226  0.24376269  0.25675274
   0.74606017  0.74896829  0.00516660
   0.00748494  0.24817501  0.74367646
   0.74975744  0.25318572  0.51241825
   0.99957342  0.75280307  0.75214955
   0.25491633  0.49846740  0.75338136
   0.24770605  0.24342986 -0.00006598
   0.49925553  0.25060559  0.24873887
   0.74012998  0.99438398  0.26113987
   0.75567430  0.24964395  0.99225751
   0.26230306  0.75700584  0.00081747
   0.25618776  0.25004122  0.49907713
   0.24804018  0.74934100  0.49916440
   0.25175231  0.25001731  0.24919768
   0.25641334  0.00079087  0.99724046
   0.00223341  0.24568386  0.00227824
   0.74991808  0.24485320  0.25224030
   0.75040051  0.99774449 -0.00081810
   0.49200049  0.99775077  0.24946613
   0.99986784  0.48851212  0.24887672
   0.50530735  0.75622721  0.00077315
   0.98808941  0.00272962  0.75254338
   0.74588045  0.24539620  0.74931901
   0.74070426  0.00140286  0.51194409
   0.50457343  0.23727202  0.50453236
   0.50716540 -0.00031568  0.74368549
   0.00579680 -0.00063318  0.24291434
   0.50272118  0.25107827 -0.00946516
   0.25810041  0.74849247  0.24930721
   0.24779149  0.50080998  0.00636266
   0.00121948  0.74702961  0.00406594
   0.74629828  0.74488637  0.25261145
   0.75369868  0.50269577  0.00346415
   0.48975807  0.51018115  0.24268322
   0.25960892  0.24438338  0.74966474
   0.25841750  0.99867245  0.50356920
   0.00101736  0.25681154  0.49994089
   0.25489306  0.75771559  0.75074258
   0.24599501  0.49989719  0.49083111
   0.99758939  0.74633108  0.49994909
   0.99700948  0.50152740  0.74904725
   0.73937494  0.75873176  0.74947663
   0.75656962  0.49920223  0.50228879
   0.50328083  0.76190184  0.49828526
   0.50112319  0.49979797  0.75403986
   0.51568737  0.01872015  0.96760294
   0.00107630  0.52061582  0.97633704
   0.50233395  0.73083432  0.25683407
   0.23392649  0.00722614  0.75009149
   0.47786519  0.98344069  0.50513961
   0.72965234  0.97722348  0.77081027
   0.00520840  0.76789101  0.24899914
   0.73564338  0.50747858  0.25030877
   0.01924824  0.00389158  0.49996691
   0.50012252  0.51926001  0.49697434
   0.73998865  0.51682380  0.75525949
   0.75382477  0.73789256  0.49828968
HECN                                    
           1
     8.735864   -0.004998   -0.011979
     0.000637    8.785265    0.006023
     0.019385   -0.009307    8.745079
   V    Nb   Hf   N    C    Cr   Mo
   7   6   7  13  19   6   6
Direct configuration=     7
   0.00049350  0.98357648  0.99624876
   0.24792114  0.98526207  0.25125534
   0.25762329  0.51450466  0.24524487
   0.50191618  0.48764176  0.99603425
   0.49364259  0.24023722  0.75668323
   0.00055989  0.49737350  0.50797584
   0.49917819  0.76190739  0.74440116
   0.00258180  0.24410502  0.25667094
   0.74576159  0.74902071  0.00500503
   0.00785633  0.24788707  0.74379543
   0.74976769  0.25296879  0.51249541
   0.99952919  0.75297742  0.75234247
   0.25475052  0.49847391  0.75355138
   0.24753429  0.24339903 -0.00019873
   0.49923509  0.25071723  0.24853839
   0.74023688  0.99448543  0.26087967
   0.75567220  0.24951405  0.99234494
   0.26257529  0.75705211  0.00076051
   0.25589473  0.25008610  0.49934363
   0.24778658  0.74938145  0.49927285
   0.25178049  0.24997894  0.24921002
   0.25628480  0.00080730  0.99738737
   0.00224610  0.24559677  0.00228784
   0.74978838  0.24482085  0.25218579
   0.75041477  0.99781020 -0.00119124
   0.49169379  0.99768729  0.24950321
   0.00006571  0.48898555  0.24910530
   0.50543264  0.75612137  0.00049932
   0.98813096  0.00276643  0.75296945
   0.74568789  0.24555614  0.74924538
   0.74105959  0.00127424  0.51188874
   0.50469529  0.23768812  0.50460566
   0.50736302 -0.00032082  0.74405172
   0.00581570 -0.00100594  0.24275021
   0.50262292  0.25117766 -0.00955299
   0.25841431  0.74853246  0.24924860
   0.24779132  0.50091098  0.00658447
   0.00140508  0.74708674  0.00402876
   0.74607009  0.74477121  0.25283292
   0.75368648  0.50268220  0.00352364
   0.48973069  0.51020601  0.24246137
   0.25980060  0.24419917  0.74976335
   0.25815426  0.99877288  0.50370585
   0.00114359  0.25714285  0.49989075
   0.25526438  0.75793674  0.75079959
   0.24572506  0.49988269  0.49078880
   0.99768927  0.74602437  0.49980213
   0.99720027  0.50156165  0.74909509
   0.73941350  0.75825181  0.74935416
   0.75660051  0.49954315  0.50218805
   0.50354029  0.76171885  0.49813905
   0.50117364  0.49976577  0.75419949
   0.51565664  0.01886133  0.96710568
   0.00114003  0.52108420  0.97593006
   0.50219033  0.73040633  0.25692870
   0.23366583  0.00692832  0.75013430
   0.47807871  0.98360563  0.50551120
   0.72904453  0.97761262  0.77108714
   0.00509846  0.76779598  0.24879057
   0.73515416  0.50754771  0.24985757
   0.01933084  0.00400568  0.49976435
   0.50045868  0.51912985  0.49676774
   0.74002160  0.51688589  0.75575013
   0.75375826  0.73763120  0.49837549
HECN                                    
           1
     8.673699   -0.009099   -0.012556
    -0.003520    8.735976    0.006684
     0.018596   -0.008566    8.687083
   V    Nb   Hf   N    C    Cr   Mo
   7   6   7  13  19   6   6
Direct configuration=     8
   0.00413301  0.98066399  0.99557330
   0.24611300  0.98138037  0.25368079
   0.26161693  0.51882624  0.24352496
   0.50106201  0.48365665  0.99462968
   0.48831751  0.23949940  0.75795831
   0.00401646  0.49581126  0.51340557
   0.50042942  0.76309180  0.74001962
   0.00200454  0.24692174  0.25674084
   0.74363682  0.74914857  0.00388453
   0.01073393  0.24490860  0.74417071
   0.75081085  0.25321533  0.51312098
   0.99865763  0.75450891  0.75234447
   0.25434343  0.49961303  0.75433845
   0.24563549  0.24332385  0.00020895
   0.49826785  0.25089525  0.24824403
   0.74064925  0.99348444  0.25932036
   0.75634764  0.24912776  0.99243228
   0.26500804  0.75740639 -0.00000999
   0.25497136  0.25055325  0.50012628
   0.24762969  0.74962887  0.50018261
   0.25139091  0.24950022  0.24962058
   0.25479972  0.00064320  0.99895843
   0.00174856  0.24479961  0.00213843
   0.74874068  0.24440409  0.25167956
   0.74998383  0.99824781 -0.00361561
   0.49117206  0.99815117  0.25048437
   0.00121803  0.49233257  0.25128126
   0.50695779  0.75540410 -0.00232570
   0.98973057  0.00294551  0.75577972
   0.74531331  0.24662557  0.74870784
   0.74497019  0.00135310  0.50982982
   0.50544587  0.24255244  0.50440132
   0.50881229 -0.00058994  0.74622318
   0.00456804 -0.00190568  0.24330586
   0.50164505  0.25101882 -0.00906876
   0.26085245  0.74963849  0.24941367
   0.24705013  0.50204613  0.00717360
   0.00256864  0.74723518  0.00319543
   0.74450309  0.74352270  0.25420570
   0.75454269  0.50260457  0.00412552
   0.49116657  0.50859801  0.24151284
   0.26041400  0.24303040  0.75083274
   0.25593713  0.99938882  0.50516184
   0.00136825  0.25798189  0.50004505
   0.25756037  0.75977586  0.75091103
   0.24493880  0.50048244  0.49186317
   0.99695163  0.74514506  0.49841628
   0.99827832  0.50149833  0.75003744
   0.74097078  0.75579360  0.74846357
   0.75589841  0.50099969  0.50108159
   0.50478642  0.75975139  0.49578716
   0.50217056  0.49942745  0.75390982
   0.51553407  0.02120223  0.96395333
   0.00158714  0.52645637  0.97218014
   0.50122245  0.72749322  0.25990610
   0.22984037  0.00345269  0.75019495
   0.47849907  0.98506699  0.50994590
   0.72322665  0.97843737  0.77266148
   0.00339362  0.76577595  0.24845467
   0.72894815  0.50912537  0.24658087
   0.01921111  0.00506240  0.49641185
   0.50356749  0.51786719  0.49502016
   0.74010795  0.51823116  0.75837825
   0.75402230  0.73376054  0.49887897
HECN                                    
           1
     8.690740   -0.007975   -0.012398
    -0.002380    8.749488    0.006502
     0.018812   -0.008769    8.702981
   V    Nb   Hf   N    C    Cr   Mo
   7   6   7  13  19   6   6
Direct configuration=     9
   0.00312857  0.98146639  0.99575956
   0.24661267  0.98245074  0.25301142
   0.26051379  0.51763433  0.24399959
   0.50129839  0.48475532  0.99501721
   0.48978779  0.23970352  0.75760654
   0.00306222  0.49624159  0.51190709
   0.50008390  0.76276503  0.74122874
   0.00216354  0.24614532  0.25672162
   0.74422346  0.74911357  0.00419379
   0.00993984  0.24572932  0.74406702
   0.75052280  0.25314724  0.51294833
   0.99889806  0.75408684  0.75234397
   0.25445566  0.49929907  0.75412129
   0.24615973  0.24334483  0.00009649
   0.49853488  0.25084630  0.24832529
   0.74053556  0.99376030  0.25975063
   0.75616120  0.24923416  0.99240816
   0.26433635  0.75730839  0.00020259
   0.25522622  0.25042460  0.49991033
   0.24767296  0.74956070  0.49993156
   0.25149853  0.24963225  0.24950728
   0.25520973  0.00068867  0.99852491
   0.00188603  0.24501943  0.00217965
   0.74903001  0.24451911  0.25181927
   0.75010280  0.99812718 -0.00294657
   0.49131602  0.99802338  0.25021363
   0.00089940  0.49140978  0.25068084
   0.50653686  0.75560157 -0.00154617
   0.98928885  0.00289599  0.75500418
   0.74541660  0.24633079  0.74885621
   0.74389054  0.00133080  0.51039792
   0.50523801  0.24121138  0.50445780
   0.50841215 -0.00051589  0.74562391
   0.00491261 -0.00165747  0.24315253
   0.50191504  0.25106274 -0.00920237
   0.26017915  0.74933327  0.24936809
   0.24725460  0.50173331  0.00701107
   0.00224739  0.74719409  0.00342537
   0.74493586  0.74386711  0.25382688
   0.75430630  0.50262587  0.00395941
   0.49077037  0.50904108  0.24177453
   0.26024478  0.24335254  0.75053760
   0.25654915  0.99921934  0.50476011
   0.00130611  0.25775056  0.50000249
   0.25692623  0.75926856  0.75088027
   0.24515578  0.50031723  0.49156672
   0.99715543  0.74538753  0.49879871
   0.99798067  0.50151567  0.74977737
   0.74054117  0.75647104  0.74870925
   0.75609209  0.50059823  0.50138697
   0.50444268  0.76029355  0.49643611
   0.50189537  0.49952058  0.75398972
   0.51556767  0.02055685  0.96482330
   0.00146306  0.52497526  0.97321506
   0.50148999  0.72829647  0.25908442
   0.23089700  0.00441133  0.75017822
   0.47838273  0.98466417  0.50872214
   0.72483278  0.97821080  0.77222717
   0.00386459  0.76633303  0.24854736
   0.73066144  0.50869119  0.24748526
   0.01924410  0.00477104  0.49733702
   0.50270938  0.51821483  0.49550232
   0.74008388  0.51786035  0.75765303
   0.75394990  0.73482755  0.49873994
HECN                                    
           1
     8.693709   -0.006723   -0.008192
    -0.001113    8.756431    0.005455
     0.023045   -0.009823    8.714754
   V    Nb   Hf   N    C    Cr   Mo
   7   6   7  13  19   6   6
Direct configuration=    10
   0.00652321  0.98021428  0.99623738
   0.24594912  0.98077654  0.25476222
   0.26254497  0.51870954  0.24374565
   0.50070152  0.48248854  0.99338298
   0.48641216  0.24059074  0.75684114
   0.00447539  0.49600563  0.51589418
   0.50229699  0.76234164  0.73720258
   0.00163046  0.24847607  0.25690944
   0.74350578  0.74950258  0.00363195
   0.01054108  0.24379018  0.74436974
   0.75133247  0.25487353  0.51303844
   0.99844035  0.75530360  0.75053246
   0.25514145  0.50132985  0.75392972
   0.24499152  0.24358024  0.00225013
   0.49724289  0.24909049  0.24950858
   0.73984175  0.99223159  0.25945854
   0.75690429  0.24940231  0.99185286
   0.26611376  0.75761271 -0.00019754
   0.25640999  0.25096826  0.49875911
   0.24910727  0.74957416  0.50015073
   0.25041598  0.24948697  0.25006449
   0.25398243  0.00034332  0.99982263
   0.00108030  0.24440685  0.00194009
   0.74869913  0.24446835  0.25154731
   0.74958112  0.99803403 -0.00340514
   0.49206298  0.99859823  0.25132072
   0.00145658  0.49276295  0.25182790
   0.50744566  0.75534171 -0.00353639
   0.99097041  0.00259701  0.75581968
   0.74603170  0.24629796  0.74869638
   0.74660896  0.00245167  0.50851942
   0.50530141  0.24461990  0.50452181
   0.50787204 -0.00069301  0.74467814
   0.00345976  0.00024247  0.24432096
   0.50125861  0.25007959 -0.00839176
   0.26148349  0.75054676  0.25000432
   0.24638793  0.50243964  0.00646869
   0.00264834  0.74740352  0.00240304
   0.74418053  0.74343903  0.25319350
   0.75559446  0.50259216  0.00418173
   0.49115453  0.50664611  0.24111929
   0.25975870  0.24278813  0.75106071
   0.25666893  0.99927405  0.50573027
   0.00094451  0.25670255  0.50067542
   0.25755386  0.76027043  0.75034935
   0.24591877  0.50112621  0.49282652
   0.99626796  0.74609891  0.49837661
   0.99797238  0.50105062  0.75025804
   0.74180047  0.75801543  0.74832981
   0.75626857  0.49875446  0.50061407
   0.50413821  0.76054778  0.49434713
   0.50251185  0.49907035  0.75284253
   0.51487765  0.02257244  0.96589245
   0.00155603  0.52802849  0.97224216
   0.50152046  0.72898957  0.26302435
   0.22787436  0.00155589  0.75021196
   0.47762331  0.98594802  0.51217350
   0.72319459  0.97685228  0.77153853
   0.00268358  0.76282180  0.24979155
   0.72802112  0.50878401  0.24633008
   0.01688018  0.00539350  0.49442720
   0.50312677  0.51570032  0.49514449
   0.74061033  0.51757054  0.75737395
   0.75444497  0.73311629  0.49906236
HECN                                    
           1
     8.695748   -0.005862   -0.005302
    -0.000241    8.761203    0.004735
     0.025953   -0.010547    8.722843
   V    Nb   Hf   N    C    Cr   Mo
   7   6   7  13  19   6   6
Direct configuration=    11
   0.00885511  0.97935424  0.99656405
   0.24549288  0.97962719  0.25596378
   0.26394026  0.51944759  0.24357080
   0.50029228  0.48093201  0.99226149
   0.48409345  0.24120021  0.75631707
   0.00544486  0.49584380  0.51862984
   0.50381865  0.76205038  0.73443887
   0.00126396  0.25007651  0.25703869
   0.74301292  0.74976971  0.00324666
   0.01095420  0.24245866  0.74457711
   0.75188847  0.25605878  0.51310014
   0.99812640  0.75613897  0.74928956
   0.25561242  0.50272417  0.75379819
   0.24418829  0.24374218  0.00372848
   0.49635514  0.24788512  0.25032089
   0.73936540  0.99118196  0.25925820
   0.75741492  0.24951764  0.99147155
   0.26733484  0.75782145 -0.00047270
   0.25722351  0.25134134  0.49796874
   0.25009250  0.74958328  0.50030066
   0.24967216  0.24938737  0.25044723
   0.25313895  0.00010641  0.00071356
   0.00052694  0.24398629  0.00177591
   0.74847194  0.24443350  0.25136078
   0.74922291  0.99797008 -0.00371967
   0.49257567  0.99899296  0.25208026
   0.00183882  0.49369212  0.25261501
   0.50807064  0.75516302 -0.00490250
   0.99212532  0.00239161  0.75637873
   0.74645430  0.24627535  0.74858649
   0.74847687  0.00322087  0.50722950
   0.50534460  0.24696031  0.50456601
   0.50750134 -0.00081464  0.74402927
   0.00246115  0.00154728  0.24512344
   0.50080751  0.24940466 -0.00783534
   0.26237917  0.75137990  0.25044061
   0.24579267  0.50292467  0.00609682
   0.00292409  0.74754720  0.00170135
   0.74366191  0.74314512  0.25275905
   0.75647929  0.50256890  0.00433387
   0.49141889  0.50500155  0.24066932
   0.25942467  0.24240067  0.75141981
   0.25675089  0.99931168  0.50639601
   0.00069600  0.25598304  0.50113726
   0.25798509  0.76095825  0.74998488
   0.24644241  0.50168171  0.49369088
   0.99565838  0.74658742  0.49808730
   0.99796658  0.50073135  0.75058787
   0.74266551  0.75907570  0.74806913
   0.75639024  0.49748839  0.50008345
   0.50392973  0.76072219  0.49291368
   0.50293577  0.49876106  0.75205503
   0.51440309  0.02395656  0.96662656
   0.00161992  0.53012485  0.97157472
   0.50154001  0.72946579  0.26572818
   0.22579825 -0.00040445  0.75023588
   0.47710035  0.98682990  0.51454236
   0.72206961  0.97591958  0.77106638
   0.00187223  0.76041109  0.25064547
   0.72620774  0.50884791  0.24553822
   0.01525721  0.00582090  0.49243117
   0.50341386  0.51397371  0.49489858
   0.74097210  0.51737148  0.75718223
   0.75478512  0.73194126  0.49928332
HECN                                    
           1
     8.734335   -0.005440   -0.004042
     0.000189    8.769565    0.004409
     0.027340   -0.010888    8.737114
   V    Nb   Hf   N    C    Cr   Mo
   7   6   7  13  19   6   6
Direct configuration=    12
   0.01060530  0.97893477  0.99902242
   0.24391880  0.98000518  0.25711841
   0.26443910  0.51876415  0.24422593