<?xml version="1.0" encoding="ISO-8859-1"?>
<modeling>
 <generator>
  <i name="program" type="string">vasp </i>
  <i name="version" type="string">5.4.4.18Apr17-6-g9f103f2a35  </i>
  <i name="subversion" type="string">(build Oct 18 2021 20:38:43) complex            parallel </i>
  <i name="platform" type="string">LinuxIFC </i>
  <i name="date" type="string">2024 05 30 </i>
  <i name="time" type="string">10:48:59 </i>
 </generator>
 <incar>
  <i type="string" name="SYSTEM">HECN</i>
  <i type="int" name="ISTART">     0</i>
  <i type="string" name="PREC">normal</i>
  <i type="string" name="ALGO">Fast</i>
  <i type="int" name="ICHARG">     2</i>
  <i type="int" name="NELM">    60</i>
  <i type="int" name="IBRION">     2</i>
  <i name="EDIFF">      0.00001000</i>
  <i name="EDIFFG">     -0.01000000</i>
  <i type="int" name="NSW">   100</i>
  <i type="int" name="ISIF">     3</i>
  <i name="ENCUT">    400.00000000</i>
  <i name="POTIM">      0.50000000</i>
  <i type="logical" name="LREAL"> F  </i>
  <i type="int" name="ISMEAR">     0</i>
  <i name="SIGMA">      0.10000000</i>
  <i type="logical" name="LWAVE"> F  </i>
  <i type="logical" name="LCHARG"> F  </i>
  <v type="int" name="KPOINT_BSE">    -1     0     0     0</v>
  <i type="int" name="NELM">    60</i>
 </incar>
 <structure name="primitive_cell" >
  <crystal>
   <varray name="basis" >
    <v>      11.23999977       0.00000000       0.00000000 </v>
    <v>       0.00000000      11.23999977       0.00000000 </v>
    <v>       0.00000000       0.00000000      11.23999977 </v>
   </varray>
   <i name="volume">   1420.03453724 </i>
   <varray name="rec_basis" >
    <v>       0.08896797       0.00000000       0.00000000 </v>
    <v>       0.00000000       0.08896797       0.00000000 </v>
    <v>       0.00000000       0.00000000       0.08896797 </v>
   </varray>
  </crystal>
  <varray name="positions" >
   <v>       0.00000000       0.00000000       0.00000000 </v>
   <v>      -0.24999996       0.00000000       0.00000000 </v>
   <v>       0.00000000       0.00000000      -0.24999996 </v>
   <v>       0.00000000      -0.24999996       0.00000000 </v>
   <v>       0.25000000       0.00000000       0.00000000 </v>
   <v>       0.00000000       0.25000000       0.00000000 </v>
   <v>       0.00000000       0.00000000       0.25000000 </v>
   <v>      -0.24999996      -0.24999996       0.00000000 </v>
   <v>       0.00000000      -0.24999996      -0.24999996 </v>
   <v>      -0.24999996       0.00000000      -0.24999996 </v>
   <v>       0.00000000       0.25000000      -0.24999996 </v>
   <v>      -0.24999996       0.00000000       0.25000000 </v>
   <v>      -0.24999996       0.25000000       0.00000000 </v>
   <v>       0.25000000      -0.24999996       0.00000000 </v>
   <v>       0.25000000       0.00000000      -0.24999996 </v>
   <v>       0.00000000      -0.24999996       0.25000000 </v>
   <v>       0.25000000       0.00000000       0.25000000 </v>
   <v>       0.00000000       0.25000000       0.25000000 </v>
   <v>       0.25000000       0.25000000       0.00000000 </v>
   <v>      -0.24999996      -0.24999996      -0.24999996 </v>
   <v>      -0.24999996       0.25000000      -0.24999996 </v>
   <v>       0.25000000      -0.24999996      -0.24999996 </v>
   <v>      -0.24999996      -0.24999996       0.25000000 </v>
   <v>      -0.24999996       0.25000000       0.25000000 </v>
   <v>       0.25000000      -0.24999996       0.25000000 </v>
   <v>       0.25000000       0.25000000      -0.24999996 </v>
   <v>       0.25000000       0.25000000       0.25000000 </v>
   <v>      -0.50000000       0.00000000       0.00000000 </v>
   <v>       0.00000000      -0.50000000       0.00000000 </v>
   <v>       0.00000000       0.00000000      -0.50000000 </v>
   <v>      -0.50000000      -0.24999996       0.00000000 </v>
   <v>      -0.24999996       0.00000000      -0.50000000 </v>
   <v>      -0.50000000       0.00000000      -0.24999996 </v>
   <v>      -0.24999996      -0.50000000       0.00000000 </v>
   <v>       0.00000000      -0.24999996      -0.50000000 </v>
   <v>       0.00000000      -0.50000000      -0.24999996 </v>
   <v>      -0.50000000       0.00000000       0.25000000 </v>
   <v>       0.00000000      -0.50000000       0.25000000 </v>
   <v>      -0.50000000       0.25000000       0.00000000 </v>
   <v>       0.25000000      -0.50000000       0.00000000 </v>
   <v>       0.25000000       0.00000000      -0.50000000 </v>
   <v>       0.00000000       0.25000000      -0.50000000 </v>
   <v>      -0.24999996      -0.24999996      -0.50000000 </v>
   <v>      -0.50000000      -0.24999996      -0.24999996 </v>
   <v>      -0.24999996      -0.50000000      -0.24999996 </v>
   <v>      -0.50000000       0.25000000      -0.24999996 </v>
   <v>      -0.24999996       0.25000000      -0.50000000 </v>
   <v>       0.25000000      -0.50000000      -0.24999996 </v>
   <v>       0.25000000      -0.24999996      -0.50000000 </v>
   <v>      -0.50000000      -0.24999996       0.25000000 </v>
   <v>      -0.24999996      -0.50000000       0.25000000 </v>
   <v>       0.25000000      -0.50000000       0.25000000 </v>
   <v>      -0.50000000       0.25000000       0.25000000 </v>
   <v>       0.25000000       0.25000000      -0.50000000 </v>
   <v>      -0.50000000      -0.50000000       0.00000000 </v>
   <v>       0.00000000      -0.50000000      -0.50000000 </v>
   <v>      -0.50000000       0.00000000      -0.50000000 </v>
   <v>      -0.24999996      -0.50000000      -0.50000000 </v>
   <v>      -0.50000000      -0.24999996      -0.50000000 </v>
   <v>      -0.50000000      -0.50000000      -0.24999996 </v>
   <v>      -0.50000000       0.25000000      -0.50000000 </v>
   <v>      -0.50000000      -0.50000000       0.25000000 </v>
   <v>       0.25000000      -0.50000000      -0.50000000 </v>
   <v>      -0.50000000      -0.50000000      -0.50000000 </v>
  </varray>
 </structure>
 <varray name="primitive_index" >
  <v type="int" >        1 </v>
  <v type="int" >       25 </v>
  <v type="int" >       29 </v>
  <v type="int" >       38 </v>
  <v type="int" >       22 </v>
  <v type="int" >       23 </v>
  <v type="int" >       34 </v>
  <v type="int" >        9 </v>
  <v type="int" >       12 </v>
  <v type="int" >       58 </v>
  <v type="int" >       10 </v>
  <v type="int" >       16 </v>
  <v type="int" >       17 </v>
  <v type="int" >       18 </v>
  <v type="int" >       56 </v>
  <v type="int" >       59 </v>
  <v type="int" >        2 </v>
  <v type="int" >        8 </v>
  <v type="int" >       14 </v>
  <v type="int" >       49 </v>
  <v type="int" >       30 </v>
  <v type="int" >       45 </v>
  <v type="int" >       39 </v>
  <v type="int" >       24 </v>
  <v type="int" >       36 </v>
  <v type="int" >       42 </v>
  <v type="int" >       21 </v>
  <v type="int" >       53 </v>
  <v type="int" >       54 </v>
  <v type="int" >       61 </v>
  <v type="int" >       28 </v>
  <v type="int" >       31 </v>
  <v type="int" >       33 </v>
  <v type="int" >       40 </v>
  <v type="int" >       47 </v>
  <v type="int" >       48 </v>
  <v type="int" >       26 </v>
  <v type="int" >       27 </v>
  <v type="int" >       35 </v>
  <v type="int" >       37 </v>
  <v type="int" >       43 </v>
  <v type="int" >       44 </v>
  <v type="int" >       64 </v>
  <v type="int" >        7 </v>
  <v type="int" >       63 </v>
  <v type="int" >        5 </v>
  <v type="int" >       11 </v>
  <v type="int" >       13 </v>
  <v type="int" >       20 </v>
  <v type="int" >       55 </v>
  <v type="int" >       60 </v>
  <v type="int" >        3 </v>
  <v type="int" >       15 </v>
  <v type="int" >       19 </v>
  <v type="int" >        4 </v>
  <v type="int" >        6 </v>
  <v type="int" >       57 </v>
  <v type="int" >       50 </v>
  <v type="int" >       51 </v>
  <v type="int" >       52 </v>
  <v type="int" >       32 </v>
  <v type="int" >       41 </v>
  <v type="int" >       46 </v>
  <v type="int" >       62 </v>
 </varray>
 <kpoints>
  <generation param="Gamma">
   <v type="int" name="divisions">       3        3        3 </v>
   <v name="usershift">      0.00000000       0.00000000       0.00000000 </v>
   <v name="genvec1">      0.33333333       0.00000000       0.00000000 </v>
   <v name="genvec2">      0.00000000       0.33333333       0.00000000 </v>
   <v name="genvec3">      0.00000000       0.00000000       0.33333333 </v>
   <v name="shift">      0.00000000       0.00000000       0.00000000 </v>
  </generation>
  <varray name="kpointlist" >
   <v>       0.00000000       0.00000000       0.00000000 </v>
   <v>       0.33333333       0.00000000       0.00000000 </v>
   <v>       0.00000000       0.33333333       0.00000000 </v>
   <v>       0.33333333       0.33333333       0.00000000 </v>
   <v>      -0.33333333       0.33333333       0.00000000 </v>
   <v>       0.00000000       0.00000000       0.33333333 </v>
   <v>       0.33333333       0.00000000       0.33333333 </v>
   <v>      -0.33333333       0.00000000       0.33333333 </v>
   <v>       0.00000000       0.33333333       0.33333333 </v>
   <v>       0.33333333       0.33333333       0.33333333 </v>
   <v>      -0.33333333       0.33333333       0.33333333 </v>
   <v>       0.00000000      -0.33333333       0.33333333 </v>
   <v>       0.33333333      -0.33333333       0.33333333 </v>
   <v>      -0.33333333      -0.33333333       0.33333333 </v>
  </varray>
  <varray name="weights" >
   <v>       0.03703704 </v>
   <v>       0.07407407 </v>
   <v>       0.07407407 </v>
   <v>       0.07407407 </v>
   <v>       0.07407407 </v>
   <v>       0.07407407 </v>
   <v>       0.07407407 </v>
   <v>       0.07407407 </v>
   <v>       0.07407407 </v>
   <v>       0.07407407 </v>
   <v>       0.07407407 </v>
   <v>       0.07407407 </v>
   <v>       0.07407407 </v>
   <v>       0.07407407 </v>
  </varray>
 </kpoints>
 <parameters>
  <separator name="general" >
   <i type="string" name="SYSTEM">HECN</i>
   <i type="logical" name="LCOMPAT"> F  </i>
  </separator>
  <separator name="electronic" >
   <i type="string" name="PREC">normal</i>
   <i name="ENMAX">    400.00000000</i>
   <i name="ENAUG">    644.87300000</i>
   <i name="EDIFF">      0.00001000</i>
   <i type="int" name="IALGO">    68</i>
   <i type="int" name="IWAVPR">    11</i>
   <i type="int" name="NBANDS">   312</i>
   <i name="NELECT">    511.00000000</i>
   <i type="int" name="TURBO">     0</i>
   <i type="int" name="IRESTART">     0</i>
   <i type="int" name="NREBOOT">     0</i>
   <i type="int" name="NMIN">     0</i>
   <i name="EREF">      0.00000000</i>
   <separator name="electronic smearing" >
    <i type="int" name="ISMEAR">     0</i>
    <i name="SIGMA">      0.10000000</i>
    <i name="KSPACING">      0.50000000</i>
    <i type="logical" name="KGAMMA"> T  </i>
   </separator>
   <separator name="electronic projectors" >
    <i type="logical" name="LREAL"> F  </i>
    <v name="ROPT">      0.00000000      0.00000000      0.00000000      0.00000000      0.00000000      0.00000000      0.00000000</v>
    <i type="int" name="LMAXPAW">  -100</i>
    <i type="int" name="LMAXMIX">     2</i>
    <i type="logical" name="NLSPLINE"> F  </i>
   </separator>
   <separator name="electronic startup" >
    <i type="int" name="ISTART">     0</i>
    <i type="int" name="ICHARG">     2</i>
    <i type="int" name="INIWAV">     1</i>
   </separator>
   <separator name="electronic spin" >
    <i type="int" name="ISPIN">     1</i>
    <i type="logical" name="LNONCOLLINEAR"> F  </i>
    <v name="MAGMOM">      1.00000000      1.00000000      1.00000000      1.00000000      1.00000000      1.00000000      1.00000000      1.00000000      1.00000000      1.00000000      1.00000000      1.00000000      1.00000000      1.00000000      1.00000000      1.00000000      1.00000000      1.00000000      1.00000000      1.00000000
      1.00000000      1.00000000      1.00000000      1.00000000      1.00000000      1.00000000      1.00000000      1.00000000      1.00000000      1.00000000      1.00000000      1.00000000      1.00000000      1.00000000      1.00000000      1.00000000      1.00000000      1.00000000      1.00000000      1.00000000
      1.00000000      1.00000000      1.00000000      1.00000000      1.00000000      1.00000000      1.00000000      1.00000000      1.00000000      1.00000000      1.00000000      1.00000000      1.00000000      1.00000000      1.00000000      1.00000000      1.00000000      1.00000000      1.00000000      1.00000000
      1.00000000      1.00000000      1.00000000      1.00000000</v>
    <i name="NUPDOWN">     -1.00000000</i>
    <i type="logical" name="LSORBIT"> F  </i>
    <v name="SAXIS">      0.00000000      0.00000000      1.00000000</v>
    <i type="logical" name="LSPIRAL"> F  </i>
    <v name="QSPIRAL">      0.00000000      0.00000000      0.00000000</v>
    <i type="logical" name="LZEROZ"> F  </i>
   </separator>
   <separator name="electronic exchange-correlation" >
    <i type="logical" name="LASPH"> F  </i>
    <i type="logical" name="LMETAGGA"> F  </i>
   </separator>
   <separator name="electronic convergence" >
    <i type="int" name="NELM">    60</i>
    <i type="int" name="NELMDL">    -5</i>
    <i type="int" name="NELMIN">     2</i>
    <i name="ENINI">    400.00000000</i>
    <separator name="electronic convergence detail" >
     <i type="logical" name="LDIAG"> T  </i>
     <i type="logical" name="LSUBROT"> F  </i>
     <i name="WEIMIN">      0.00100000</i>
     <i name="EBREAK">      0.00000001</i>
     <i name="DEPER">      0.30000000</i>
     <i type="int" name="NRMM">     4</i>
     <i name="TIME">      0.40000000</i>
    </separator>
   </separator>
   <separator name="electronic mixer" >
    <i name="AMIX">      0.40000000</i>
    <i name="BMIX">      1.00000000</i>
    <i name="AMIN">      0.10000000</i>
    <i name="AMIX_MAG">      1.60000000</i>
    <i name="BMIX_MAG">      1.00000000</i>
    <separator name="electronic mixer details" >
     <i type="int" name="IMIX">     4</i>
     <i type="logical" name="MIXFIRST"> F  </i>
     <i type="int" name="MAXMIX">   -45</i>
     <i name="WC">    100.00000000</i>
     <i type="int" name="INIMIX">     1</i>
     <i type="int" name="MIXPRE">     1</i>
     <i type="int" name="MREMOVE">     5</i>
    </separator>
   </separator>
   <separator name="electronic dipolcorrection" >
    <i type="logical" name="LDIPOL"> F  </i>
    <i type="logical" name="LMONO"> F  </i>
    <i type="int" name="IDIPOL">     0</i>
    <i name="EPSILON">      1.00000000</i>
    <v name="DIPOL">   -100.00000000   -100.00000000   -100.00000000</v>
    <i name="EFIELD">      0.00000000</i>
   </separator>
  </separator>
  <separator name="grids" >
   <i type="int" name="NGX">    56</i>
   <i type="int" name="NGY">    56</i>
   <i type="int" name="NGZ">    56</i>
   <i type="int" name="NGXF">   112</i>
   <i type="int" name="NGYF">   112</i>
   <i type="int" name="NGZF">   112</i>
   <i type="logical" name="ADDGRID"> F  </i>
  </separator>
  <separator name="ionic" >
   <i type="int" name="NSW">   100</i>
   <i type="int" name="IBRION">     2</i>
   <i type="int" name="MDALGO">     0</i>
   <i type="int" name="ISIF">     3</i>
   <i name="PSTRESS">      0.00000000</i>
   <i name="EDIFFG">     -0.01000000</i>
   <i type="int" name="NFREE">     1</i>
   <i name="POTIM">      0.50000000</i>
   <i name="SMASS">     -3.00000000</i>
   <i name="SCALEE">      1.00000000</i>
  </separator>
  <separator name="ionic md" >
   <i name="TEBEG">      0.00010000</i>
   <i name="TEEND">      0.00010000</i>
   <i type="int" name="NBLOCK">     1</i>
   <i type="int" name="KBLOCK">   100</i>
   <i type="int" name="NPACO">   256</i>
   <i name="APACO">     16.00000000</i>
  </separator>
  <separator name="symmetry" >
   <i type="int" name="ISYM">     2</i>
   <i name="SYMPREC">      0.00001000</i>
  </separator>
  <separator name="dos" >
   <i type="int" name="LORBIT">     0</i>
   <v name="RWIGS">     -1.00000000     -1.00000000     -1.00000000     -1.00000000     -1.00000000     -1.00000000     -1.00000000</v>
   <i type="int" name="NEDOS">   301</i>
   <i name="EMIN">     10.00000000</i>
   <i name="EMAX">    -10.00000000</i>
   <i name="EFERMI">      0.00000000</i>
  </separator>
  <separator name="writing" >
   <i type="int" name="NWRITE">     2</i>
   <i type="logical" name="LWAVE"> F  </i>
   <i type="logical" name="LDOWNSAMPLE"> F  </i>
   <i type="logical" name="LCHARG"> F  </i>
   <i type="logical" name="LPARD"> F  </i>
   <i type="logical" name="LVTOT"> F  </i>
   <i type="logical" name="LVHAR"> F  </i>
   <i type="logical" name="LELF"> F  </i>
   <i type="logical" name="LOPTICS"> F  </i>
   <v name="STM">      0.00000000      0.00000000      0.00000000      0.00000000      0.00000000      0.00000000      0.00000000</v>
  </separator>
  <separator name="performance" >
   <i type="int" name="NPAR">    24</i>
   <i type="int" name="NSIM">     4</i>
   <i type="int" name="NBLK">    -1</i>
   <i type="logical" name="LPLANE"> T  </i>
   <i type="logical" name="LSCALAPACK"> T  </i>
   <i type="logical" name="LSCAAWARE"> F  </i>
   <i type="logical" name="LSCALU"> F  </i>
   <i type="logical" name="LASYNC"> F  </i>
   <i type="logical" name="LORBITALREAL"> F  </i>
  </separator>
  <separator name="miscellaneous" >
   <i type="int" name="IDIOT">     3</i>
   <i type="int" name="ISPECIAL">     0</i>
   <i type="logical" name="LMUSIC"> F  </i>
   <v name="POMASS">     47.88000000    180.94800000    178.49000000     14.00100000     12.01100000    183.85000000     50.94100000</v>
   <v name="DARWINR">      0.00000000      0.00000000      0.00000000      0.00000000      0.00000000      0.00000000      0.00000000</v>
   <v name="DARWINV">      1.00000000      1.00000000      1.00000000      1.00000000      1.00000000      1.00000000      1.00000000</v>
   <i type="logical" name="LCORR"> T  </i>
  </separator>
  <i type="logical" name="GGA_COMPAT"> T  </i>
  <i type="logical" name="LBERRY"> F  </i>
  <i type="int" name="ICORELEVEL">     0</i>
  <i type="logical" name="LDAU"> F  </i>
  <i type="int" name="I_CONSTRAINED_M">     0</i>
  <separator name="electronic exchange-correlation" >
   <i type="string" name="GGA">--</i>
   <i type="int" name="VOSKOWN">     0</i>
   <i type="logical" name="LHFCALC"> F  </i>
   <i type="string" name="PRECFOCK"></i>
   <i type="logical" name="LSYMGRAD"> F  </i>
   <i type="logical" name="LHFONE"> F  </i>
   <i type="logical" name="LRHFCALC"> F  </i>
   <i type="logical" name="LTHOMAS"> F  </i>
   <i type="logical" name="LMODELHF"> F  </i>
   <i name="ENCUT4O">     -1.00000000</i>
   <i type="int" name="EXXOEP">     0</i>
   <i type="int" name="FOURORBIT">     0</i>
   <i name="AEXX">      0.00000000</i>
   <i name="HFALPHA">      0.00000000</i>
   <i name="MCALPHA">      0.00000000</i>
   <i name="ALDAX">      1.00000000</i>
   <i name="AGGAX">      1.00000000</i>
   <i name="ALDAC">      1.00000000</i>
   <i name="AGGAC">      1.00000000</i>
   <i type="int" name="NKREDX">     1</i>
   <i type="int" name="NKREDY">     1</i>
   <i type="int" name="NKREDZ">     1</i>
   <i type="logical" name="SHIFTRED"> F  </i>
   <i type="logical" name="ODDONLY"> F  </i>
   <i type="logical" name="EVENONLY"> F  </i>
   <i type="int" name="LMAXFOCK">     0</i>
   <i type="int" name="NMAXFOCKAE">     0</i>
   <i type="logical" name="LFOCKAEDFT"> F  </i>
   <i name="HFSCREEN">      0.00000000</i>
   <i name="HFSCREENC">      0.00000000</i>
   <i type="int" name="NBANDSGWLOW">     0</i>
  </separator>
  <separator name="vdW DFT" >
   <i type="logical" name="LUSE_VDW"> F  </i>
   <i name="Zab_VDW">     -0.84910000</i>
   <i name="PARAM1">      0.12340000</i>
   <i name="PARAM2">      1.00000000</i>
   <i name="PARAM3">      0.00000000</i>
  </separator>
  <separator name="model GW" >
   <i type="int" name="MODEL_GW">     0</i>
   <i name="MODEL_EPS0">     13.31282379</i>
   <i name="MODEL_ALPHA">      1.00000000</i>
  </separator>
  <separator name="linear response parameters" >
   <i type="logical" name="LEPSILON"> F  </i>
   <i type="logical" name="LRPA"> F  </i>
   <i type="logical" name="LNABLA"> F  </i>
   <i type="logical" name="LVEL"> F  </i>
   <i type="int" name="KINTER">     0</i>
   <i name="CSHIFT">      0.10000000</i>
   <i name="OMEGAMAX">     -1.00000000</i>
   <i name="DEG_THRESHOLD">      0.00200000</i>
   <i name="RTIME">     -0.10000000</i>
   <i name="WPLASMAI">      0.00000000</i>
   <v name="DFIELD">      0.00000000      0.00000000      0.00000000</v>
   <v name="WPLASMA">      0.00000000      0.00000000      0.00000000      0.00000000      0.00000000      0.00000000      0.00000000      0.00000000      0.00000000</v>
  </separator>
  <separator name="orbital magnetization" >
   <i type="logical" name="NUCIND"> F  </i>
   <v name="MAGPOS">      0.00000000      0.00000000      0.00000000</v>
   <i type="logical" name="LNICSALL"> T  </i>
   <i type="logical" name="ORBITALMAG"> F  </i>
   <i type="logical" name="LMAGBLOCH"> F  </i>
   <i type="logical" name="LCHIMAG"> F  </i>
   <i type="logical" name="LGAUGE"> T  </i>
   <i type="int" name="MAGATOM">     0</i>
   <v name="MAGDIPOL">      0.00000000      0.00000000      0.00000000</v>
   <v name="AVECCONST">      0.00000000      0.00000000      0.00000000</v>
  </separator>
  <separator name="response functions" >
   <i type="logical" name="LADDER"> F  </i>
   <i type="logical" name="LRPAFORCE"> F  </i>
   <i type="logical" name="LFXC"> F  </i>
   <i type="logical" name="LHARTREE"> T  </i>
   <i type="int" name="IBSE">     0</i>
   <v type="int" name="KPOINT">    -1     0     0     0</v>
   <i type="logical" name="LTCTE"> F  </i>
   <i type="logical" name="LTETE"> F  </i>
   <i type="logical" name="LTRIPLET"> F  </i>
   <i type="logical" name="LFXCEPS"> F  </i>
   <i type="logical" name="LFXHEG"> F  </i>
   <i type="int" name="NATURALO">     2</i>
   <i type="logical" name="L2ORDER"> F  </i>
   <i type="logical" name="LMP2LT"> F  </i>
   <i type="logical" name="LUSEW"> F  </i>
   <i name="ENCUTGW">     -2.00000000</i>
   <i name="ENCUTGWSOFT">     -2.00000000</i>
   <i name="ENCUTLF">     -1.00000000</i>
   <i type="int" name="LMAXMP2">    -1</i>
   <i name="SCISSOR">      0.00000000</i>
   <i type="int" name="NOMEGA">     0</i>
   <i type="int" name="NOMEGAR">     0</i>
   <i type="int" name="NBANDSGW">    -1</i>
   <i type="int" name="NBANDSO">    -1</i>
   <i type="int" name="NBANDSV">    -1</i>
   <i type="int" name="NELM">    60</i>
   <i type="int" name="NELMHF">     1</i>
   <i type="int" name="DIM">     3</i>
   <i type="int" name="ANTIRES">     0</i>
   <i name="OMEGAMAX">    -30.00000000</i>
   <i name="OMEGAMIN">    -30.00000000</i>
   <i name="OMEGATL">   -200.00000000</i>
   <i type="int" name="OMEGAGRID">   140</i>
   <i name="CSHIFT">     -0.10000000</i>
   <i type="logical" name="SELFENERGY"> F  </i>
   <i type="logical" name="LSPECTRAL"> F  </i>
   <i type="logical" name="LSPECTRALGW"> F  </i>
   <i type="logical" name="LSINGLES"> F  </i>
   <i type="logical" name="LFERMIGW"> F  </i>
   <i type="logical" name="ODDONLYGW"> F  </i>
   <i type="logical" name="EVENONLYGW"> F  </i>
   <i type="int" name="NKREDLFX">     1</i>
   <i type="int" name="NKREDLFY">     1</i>
   <i type="int" name="NKREDLFZ">     1</i>
   <i type="int" name="MAXMEM">  2800</i>
   <i type="int" name="TELESCOPE">     0</i>
   <i type="int" name="TAUPAR">     1</i>
   <i type="int" name="OMEGAPAR">    -1</i>
   <i name="LAMBDA">      1.00000000</i>
  </separator>
  <separator name="External order field" >
   <i name="OFIELD_KAPPA">      0.00000000</i>
   <v name="OFIELD_K">      0.00000000      0.00000000      0.00000000</v>
   <i name="OFIELD_Q6_NEAR">      0.00000000</i>
   <i name="OFIELD_Q6_FAR">      0.00000000</i>
   <i name="OFIELD_A">      0.00000000</i>
  </separator>
 </parameters>
 <atominfo>
  <atoms>      64 </atoms>
  <types>       7 </types>
  <array name="atoms" >
   <dimension dim="1">ion</dimension>
   <field type="string">element</field>
   <field type="int">atomtype</field>
   <set>
    <rc><c>Ti</c><c>   1</c></rc>
    <rc><c>Ti</c><c>   1</c></rc>
    <rc><c>Ti</c><c>   1</c></rc>
    <rc><c>Ti</c><c>   1</c></rc>
    <rc><c>Ti</c><c>   1</c></rc>
    <rc><c>Ti</c><c>   1</c></rc>
    <rc><c>Ti</c><c>   1</c></rc>
    <rc><c>Ta</c><c>   2</c></rc>
    <rc><c>Ta</c><c>   2</c></rc>
    <rc><c>Ta</c><c>   2</c></rc>
    <rc><c>Ta</c><c>   2</c></rc>
    <rc><c>Ta</c><c>   2</c></rc>
    <rc><c>Ta</c><c>   2</c></rc>
    <rc><c>Hf</c><c>   3</c></rc>
    <rc><c>Hf</c><c>   3</c></rc>
    <rc><c>Hf</c><c>   3</c></rc>
    <rc><c>Hf</c><c>   3</c></rc>
    <rc><c>Hf</c><c>   3</c></rc>
    <rc><c>Hf</c><c>   3</c></rc>
    <rc><c>Hf</c><c>   3</c></rc>
    <rc><c>N </c><c>   4</c></rc>
    <rc><c>N </c><c>   4</c></rc>
    <rc><c>N </c><c>   4</c></rc>
    <rc><c>N </c><c>   4</c></rc>
    <rc><c>N </c><c>   4</c></rc>
    <rc><c>N </c><c>   4</c></rc>
    <rc><c>N </c><c>   4</c></rc>
    <rc><c>N </c><c>   4</c></rc>
    <rc><c>N </c><c>   4</c></rc>
    <rc><c>N </c><c>   4</c></rc>
    <rc><c>N </c><c>   4</c></rc>
    <rc><c>N </c><c>   4</c></rc>
    <rc><c>N </c><c>   4</c></rc>
    <rc><c>C </c><c>   5</c></rc>
    <rc><c>C </c><c>   5</c></rc>
    <rc><c>C </c><c>   5</c></rc>
    <rc><c>C </c><c>   5</c></rc>
    <rc><c>C </c><c>   5</c></rc>
    <rc><c>C </c><c>   5</c></rc>
    <rc><c>C </c><c>   5</c></rc>
    <rc><c>C </c><c>   5</c></rc>
    <rc><c>C </c><c>   5</c></rc>
    <rc><c>C </c><c>   5</c></rc>
    <rc><c>C </c><c>   5</c></rc>
    <rc><c>C </c><c>   5</c></rc>
    <rc><c>C </c><c>   5</c></rc>
    <rc><c>C </c><c>   5</c></rc>
    <rc><c>C </c><c>   5</c></rc>
    <rc><c>C </c><c>   5</c></rc>
    <rc><c>C </c><c>   5</c></rc>
    <rc><c>C </c><c>   5</c></rc>
    <rc><c>C </c><c>   5</c></rc>
    <rc><c>W </c><c>   6</c></rc>
    <rc><c>W </c><c>   6</c></rc>
    <rc><c>W </c><c>   6</c></rc>
    <rc><c>W </c><c>   6</c></rc>
    <rc><c>W </c><c>   6</c></rc>
    <rc><c>W </c><c>   6</c></rc>
    <rc><c>V </c><c>   7</c></rc>
    <rc><c>V </c><c>   7</c></rc>
    <rc><c>V </c><c>   7</c></rc>
    <rc><c>V </c><c>   7</c></rc>
    <rc><c>V </c><c>   7</c></rc>
    <rc><c>V </c><c>   7</c></rc>
   </set>
  </array>
  <array name="atomtypes" >
   <dimension dim="1">type</dimension>
   <field type="int">atomspertype</field>
   <field type="string">element</field>
   <field>mass</field>
   <field>valence</field>
   <field type="string">pseudopotential</field>
   <set>
    <rc><c>   7</c><c>Ti</c><c>     47.88000000</c><c>     12.00000000</c><c> PAW_PBE Ti_sv 07Sep2000                </c></rc>
    <rc><c>   6</c><c>Ta</c><c>    180.94800000</c><c>     11.00000000</c><c> PAW_PBE Ta_pv 07Sep2000                </c></rc>
    <rc><c>   7</c><c>Hf</c><c>    178.49000000</c><c>     10.00000000</c><c> PAW_PBE Hf_pv 06Sep2000                </c></rc>
    <rc><c>  13</c><c>N </c><c>     14.00100000</c><c>      5.00000000</c><c> PAW_PBE N 08Apr2002                    </c></rc>
    <rc><c>  19</c><c>C </c><c>     12.01100000</c><c>      4.00000000</c><c> PAW_PBE C 08Apr2002                    </c></rc>
    <rc><c>   6</c><c>W </c><c>    183.85000000</c><c>     12.00000000</c><c> PAW_PBE W_pv 06Sep2000                 </c></rc>
    <rc><c>   6</c><c>V </c><c>     50.94100000</c><c>     13.00000000</c><c> PAW_PBE V_sv 07Sep2000                 </c></rc>
   </set>
  </array>
 </atominfo>
 <structure name="initialpos" >
  <crystal>
   <varray name="basis" >
    <v>      11.23999977       0.00000000       0.00000000 </v>
    <v>       0.00000000      11.23999977       0.00000000 </v>
    <v>       0.00000000       0.00000000      11.23999977 </v>
   </varray>
   <i name="volume">   1420.03453724 </i>
   <varray name="rec_basis" >
    <v>       0.08896797       0.00000000       0.00000000 </v>
    <v>       0.00000000       0.08896797       0.00000000 </v>
    <v>       0.00000000       0.00000000       0.08896797 </v>
   </varray>
  </crystal>
  <varray name="positions" >
   <v>       0.00000000       0.00000000       0.00000000 </v>
   <v>       0.25000000       0.00000000       0.25000000 </v>
   <v>       0.25000000       0.50000000       0.25000000 </v>
   <v>       0.50000000       0.50000000       0.00000000 </v>
   <v>       0.50000000       0.25000000       0.75000004 </v>
   <v>       0.00000000       0.50000000       0.50000000 </v>
   <v>       0.50000000       0.75000004       0.75000004 </v>
   <v>       0.00000000       0.25000000       0.25000000 </v>
   <v>       0.75000004       0.75000004       0.00000000 </v>
   <v>       0.00000000       0.25000000       0.75000004 </v>
   <v>       0.75000004       0.25000000       0.50000000 </v>
   <v>       0.00000000       0.75000004       0.75000004 </v>
   <v>       0.25000000       0.50000000       0.75000004 </v>
   <v>       0.25000000       0.25000000       0.00000000 </v>
   <v>       0.50000000       0.25000000       0.25000000 </v>
   <v>       0.75000004       0.00000000       0.25000000 </v>
   <v>       0.75000004       0.25000000       0.00000000 </v>
   <v>       0.25000000       0.75000004       0.00000000 </v>
   <v>       0.25000000       0.25000000       0.50000000 </v>
   <v>       0.25000000       0.75000004       0.50000000 </v>
   <v>       0.25000000       0.25000000       0.25000000 </v>
   <v>       0.25000000       0.00000000       0.00000000 </v>
   <v>       0.00000000       0.25000000       0.00000000 </v>
   <v>       0.75000004       0.25000000       0.25000000 </v>
   <v>       0.75000004       0.00000000       0.00000000 </v>
   <v>       0.50000000       0.00000000       0.25000000 </v>
   <v>       0.00000000       0.50000000       0.25000000 </v>
   <v>       0.50000000       0.75000004       0.00000000 </v>
   <v>       0.00000000       0.00000000       0.75000004 </v>
   <v>       0.75000004       0.25000000       0.75000004 </v>
   <v>       0.75000004       0.00000000       0.50000000 </v>
   <v>       0.50000000       0.25000000       0.50000000 </v>
   <v>       0.50000000       0.00000000       0.75000004 </v>
   <v>       0.00000000       0.00000000       0.25000000 </v>
   <v>       0.50000000       0.25000000       0.00000000 </v>
   <v>       0.25000000       0.75000004       0.25000000 </v>
   <v>       0.25000000       0.50000000       0.00000000 </v>
   <v>       0.00000000       0.75000004       0.00000000 </v>
   <v>       0.75000004       0.75000004       0.25000000 </v>
   <v>       0.75000004       0.50000000       0.00000000 </v>
   <v>       0.50000000       0.50000000       0.25000000 </v>
   <v>       0.25000000       0.25000000       0.75000004 </v>
   <v>       0.25000000       0.00000000       0.50000000 </v>
   <v>       0.00000000       0.25000000       0.50000000 </v>
   <v>       0.25000000       0.75000004       0.75000004 </v>
   <v>       0.25000000       0.50000000       0.50000000 </v>
   <v>       0.00000000       0.75000004       0.50000000 </v>
   <v>       0.00000000       0.50000000       0.75000004 </v>
   <v>       0.75000004       0.75000004       0.75000004 </v>
   <v>       0.75000004       0.50000000       0.50000000 </v>
   <v>       0.50000000       0.75000004       0.50000000 </v>
   <v>       0.50000000       0.50000000       0.75000004 </v>
   <v>       0.50000000       0.00000000       0.00000000 </v>
   <v>       0.00000000       0.50000000       0.00000000 </v>
   <v>       0.50000000       0.75000004       0.25000000 </v>
   <v>       0.25000000       0.00000000       0.75000004 </v>
   <v>       0.50000000       0.00000000       0.50000000 </v>
   <v>       0.75000004       0.00000000       0.75000004 </v>
   <v>       0.00000000       0.75000004       0.25000000 </v>
   <v>       0.75000004       0.50000000       0.25000000 </v>
   <v>       0.00000000       0.00000000       0.50000000 </v>
   <v>       0.50000000       0.50000000       0.50000000 </v>
   <v>       0.75000004       0.50000000       0.75000004 </v>
   <v>       0.75000004       0.75000004       0.50000000 </v>
  </varray>
 </structure>
 <calculation>
  <scstep>
   <time name="dav">   92.31   93.08</time>
   <time name="total">   92.36   93.14</time>
   <energy>
    <i name="alphaZ">   2274.37165660 </i>
    <i name="ewald"> -33420.33344935 </i>
    <i name="hartreedc"> -12407.81621538 </i>
    <i name="XCdc">   1777.18346156 </i>
    <i name="pawpsdc">  30800.98515812 </i>
    <i name="pawaedc"> -30530.63611945 </i>
    <i name="eentropy">     -0.10751147 </i>
    <i name="bandstr">  -2721.76048608 </i>
    <i name="atom">  48906.49885061 </i>
    <i name="e_fr_energy">   4678.38534515 </i>
    <i name="e_wo_entrp">   4678.49285662 </i>
    <i name="e_0_energy">   4678.43910088 </i>
   </energy>
  </scstep>
  <scstep>
   <time name="dav">   83.81   85.29</time>
   <time name="total">   83.81   85.29</time>
   <energy>
    <i name="e_fr_energy">    138.63031758 </i>
    <i name="e_wo_entrp">    138.93897358 </i>
    <i name="e_0_energy">    138.78464558 </i>
   </energy>
  </scstep>
  <scstep>
   <time name="dav">  119.69  120.16</time>
   <time name="total">  119.69  120.16</time>
   <energy>
    <i name="e_fr_energy">   -557.90342672 </i>
    <i name="e_wo_entrp">   -557.67686786 </i>
    <i name="e_0_energy">   -557.79014729 </i>
   </energy>
  </scstep>
  <scstep>
   <time name="dav">  122.17  122.79</time>
   <time name="total">  122.17  122.79</time>
   <energy>
    <i name="e_fr_energy">   -637.18567815 </i>
    <i name="e_wo_entrp">   -636.96700708 </i>
    <i name="e_0_energy">   -637.07634262 </i>
   </energy>
  </scstep>
  <scstep>
   <time name="dav">  130.80  131.14</time>
   <time name="total">  131.48  131.82</time>
   <energy>
    <i name="e_fr_energy">   -645.26169343 </i>
    <i name="e_wo_entrp">   -645.01752869 </i>
    <i name="e_0_energy">   -645.13961106 </i>
   </energy>
  </scstep>
  <scstep>
   <time name="diag">    2.97    3.01</time>
   <time name="diis">   85.28   86.41</time>
   <time name="orth">    0.70    0.70</time>
   <time name="total">   89.67   90.85</time>
   <energy>
    <i name="e_fr_energy">   -768.32492937 </i>
    <i name="e_wo_entrp">   -767.96718422 </i>
    <i name="e_0_energy">   -768.14605680 </i>
   </energy>
  </scstep>
  <scstep>
   <time name="diag">    3.01    3.01</time>
   <time name="diis">   88.47   89.63</time>
   <time name="orth">    0.70    0.70</time>
   <time name="total">   92.90   94.08</time>
   <energy>
    <i name="e_fr_energy">   -536.54120363 </i>
    <i name="e_wo_entrp">   -536.23511801 </i>
    <i name="e_0_energy">   -536.38816082 </i>
   </energy>
  </scstep>
  <scstep>
   <time name="diag">    2.99    3.04</time>
   <time name="diis">   79.70   79.99</time>
   <time name="orth">    0.72    0.73</time>
   <time name="total">   84.15   84.51</time>
   <energy>
    <i name="e_fr_energy">   -477.07844819 </i>
    <i name="e_wo_entrp">   -476.66391197 </i>
    <i name="e_0_energy">   -476.87118008 </i>
   </energy>
  </scstep>
  <scstep>
   <time name="diag">    2.96    3.01</time>
   <time name="diis">   88.74   89.04</time>
   <time name="orth">    0.70    0.70</time>
   <time name="total">   93.15   93.50</time>
   <energy>
    <i name="e_fr_energy">   -478.84018748 </i>
    <i name="e_wo_entrp">   -478.49384385 </i>
    <i name="e_0_energy">   -478.66701566 </i>
   </energy>
  </scstep>
  <scstep>
   <time name="diag">    2.96    3.03</time>
   <time name="diis">   90.26   90.62</time>
   <time name="orth">    0.71    0.71</time>
   <time name="total">   94.71   95.15</time>
   <energy>
    <i name="e_fr_energy">   -471.41519955 </i>
    <i name="e_wo_entrp">   -470.96415143 </i>
    <i name="e_0_energy">   -471.18967549 </i>
   </energy>
  </scstep>
  <scstep>
   <time name="diag">    3.03    3.04</time>
   <time name="diis">   89.30   89.50</time>
   <time name="orth">    0.70    0.70</time>
   <time name="total">   93.82   94.03</time>
   <energy>
    <i name="e_fr_energy">   -472.27553369 </i>
    <i name="e_wo_entrp">   -471.81963456 </i>
    <i name="e_0_energy">   -472.04758413 </i>
   </energy>
  </scstep>
  <scstep>
   <time name="diag">    3.00    3.00</time>
   <time name="diis">   89.78   89.99</time>
   <time name="orth">    0.70    0.70</time>
   <time name="total">   94.26   94.47</time>
   <energy>
    <i name="e_fr_energy">   -474.76503543 </i>
    <i name="e_wo_entrp">   -474.32601019 </i>
    <i name="e_0_energy">   -474.54552281 </i>
   </energy>
  </scstep>
  <scstep>
   <time name="diag">    3.00    3.00</time>
   <time name="diis">   90.04   90.31</time>
   <time name="orth">    0.70    0.71</time>
   <time name="total">   94.51   94.81</time>
   <energy>
    <i name="e_fr_energy">   -472.89241693 </i>
    <i name="e_wo_entrp">   -472.42295927 </i>
    <i name="e_0_energy">   -472.65768810 </i>
   </energy>
  </scstep>
  <scstep>
   <time name="diag">    2.94    3.03</time>
   <time name="diis">   88.83   89.56</time>
   <time name="orth">    0.72    0.72</time>
   <time name="total">   93.28   94.10</time>
   <energy>
    <i name="e_fr_energy">   -469.88517959 </i>
    <i name="e_wo_entrp">   -469.37283267 </i>
    <i name="e_0_energy">   -469.62900613 </i>
   </energy>
  </scstep>
  <scstep>
   <time name="diag">    2.93    3.02</time>
   <time name="diis">   86.87   89.26</time>
   <time name="orth">    0.70    0.70</time>
   <time name="total">   91.30   93.78</time>
   <energy>
    <i name="e_fr_energy">   -469.11952665 </i>
    <i name="e_wo_entrp">   -468.59523076 </i>
    <i name="e_0_energy">   -468.85737871 </i>
   </energy>
  </scstep>
  <scstep>
   <time name="diag">    3.00    3.00</time>
   <time name="diis">   90.99   91.22</time>
   <time name="orth">    0.70    0.70</time>
   <time name="total">   95.48   95.71</time>
   <energy>
    <i name="e_fr_energy">   -468.75845862 </i>
    <i name="e_wo_entrp">   -468.24476665 </i>
    <i name="e_0_energy">   -468.50161263 </i>
   </energy>
  </scstep>
  <scstep>
   <time name="diag">    3.02    3.04</time>
   <time name="diis">   88.94   89.32</time>
   <time name="orth">    0.70    0.70</time>
   <time name="total">   93.43   93.84</time>
   <energy>
    <i name="e_fr_energy">   -468.61333662 </i>
    <i name="e_wo_entrp">   -468.10487700 </i>
    <i name="e_0_energy">   -468.35910681 </i>
   </energy>
  </scstep>
  <scstep>
   <time name="diag">    3.00    3.00</time>
   <time name="diis">   89.00   89.28</time>
   <time name="orth">    0.70    0.70</time>
   <time name="total">   93.52   93.80</time>
   <energy>
    <i name="e_fr_energy">   -468.51358869 </i>
    <i name="e_wo_entrp">   -467.97739719 </i>
    <i name="e_0_energy">   -468.24549294 </i>
   </energy>
  </scstep>
  <scstep>
   <time name="diag">    3.02    3.02</time>
   <time name="diis">   90.03   91.14</time>
   <time name="orth">    0.69    0.69</time>
   <time name="total">   94.53   95.65</time>
   <energy>
    <i name="e_fr_energy">   -468.31959502 </i>
    <i name="e_wo_entrp">   -467.77644767 </i>
    <i name="e_0_energy">   -468.04802134 </i>
   </energy>
  </scstep>
  <scstep>
   <time name="diag">    2.97    3.05</time>
   <time name="diis">   88.62   89.22</time>
   <time name="orth">    0.71    0.72</time>
   <time name="total">   93.08   93.78</time>
   <energy>
    <i name="e_fr_energy">   -468.21995401 </i>
    <i name="e_wo_entrp">   -467.67415037 </i>
    <i name="e_0_energy">   -467.94705219 </i>
   </energy>
  </scstep>
  <scstep>
   <time name="diag">    2.94    3.02</time>
   <time name="diis">   88.05   89.75</time>
   <time name="orth">    0.70    0.70</time>
   <time name="total">   92.48   94.27</time>
   <energy>
    <i name="e_fr_energy">   -468.20812068 </i>
    <i name="e_wo_entrp">   -467.66269818 </i>
    <i name="e_0_energy">   -467.93540943 </i>
   </energy>
  </scstep>
  <scstep>
   <time name="diag">    3.00    3.00</time>
   <time name="diis">   90.28   90.55</time>
   <time name="orth">    0.70    0.70</time>
   <time name="total">   94.76   95.04</time>
   <energy>
    <i name="e_fr_energy">   -468.22767208 </i>
    <i name="e_wo_entrp">   -467.68341061 </i>
    <i name="e_0_energy">   -467.95554135 </i>
   </energy>
  </scstep>
  <scstep>
   <time name="diag">    2.93    3.01</time>
   <time name="diis">   90.09   90.91</time>
   <time name="orth">    0.71    0.72</time>
   <time name="total">   94.51   95.45</time>
   <energy>
    <i name="e_fr_energy">   -468.20448923 </i>
    <i name="e_wo_entrp">   -467.65974561 </i>
    <i name="e_0_energy">   -467.93211742 </i>
   </energy>
  </scstep>
  <scstep>
   <time name="diag">    2.92    3.02</time>
   <time name="diis">   89.58   90.02</time>
   <time name="orth">    0.70    0.70</time>
   <time name="total">   93.99   94.53</time>
   <energy>
    <i name="e_fr_energy">   -468.21907702 </i>
    <i name="e_wo_entrp">   -467.65963603 </i>
    <i name="e_0_energy">   -467.93935652 </i>
   </energy>
  </scstep>
  <scstep>
   <time name="diag">    3.00    3.00</time>
   <time name="diis">   91.31   91.44</time>
   <time name="orth">    0.70    0.70</time>
   <time name="total">   95.81   95.94</time>
   <energy>
    <i name="e_fr_energy">   -468.20611170 </i>
    <i name="e_wo_entrp">   -467.65334950 </i>
    <i name="e_0_energy">   -467.92973060 </i>
   </energy>
  </scstep>
  <scstep>
   <time name="diag">    2.92    3.01</time>
   <time name="diis">   86.89   90.53</time>
   <time name="orth">    0.71    0.72</time>
   <time name="total">   91.33   95.08</time>
   <energy>
    <i name="e_fr_energy">   -468.20982955 </i>
    <i name="e_wo_entrp">   -467.65518631 </i>
    <i name="e_0_energy">   -467.93250793 </i>
   </energy>
  </scstep>
  <scstep>
   <time name="diag">    3.02    3.03</time>
   <time name="diis">   89.23   89.55</time>
   <time name="orth">    0.70    0.70</time>
   <time name="total">   93.75   94.07</time>
   <energy>
    <i name="e_fr_energy">   -468.21136340 </i>
    <i name="e_wo_entrp">   -467.65464134 </i>
    <i name="e_0_energy">   -467.93300237 </i>
   </energy>
  </scstep>
  <scstep>
   <time name="diag">    3.01    3.11</time>
   <time name="diis">   84.05   85.97</time>
   <time name="orth">    0.70    0.70</time>
   <time name="total">   88.55   90.57</time>
   <energy>
    <i name="e_fr_energy">   -468.21269173 </i>
    <i name="e_wo_entrp">   -467.65777898 </i>
    <i name="e_0_energy">   -467.93523536 </i>
   </energy>
  </scstep>
  <scstep>
   <time name="diag">    2.93    3.01</time>
   <time name="diis">   86.76   86.92</time>
   <time name="orth">    0.70    0.70</time>
   <time name="total">   91.17   91.42</time>
   <energy>
    <i name="e_fr_energy">   -468.21404759 </i>
    <i name="e_wo_entrp">   -467.65722064 </i>
    <i name="e_0_energy">   -467.93563411 </i>
   </energy>
  </scstep>
  <scstep>
   <time name="diag">    2.93    3.01</time>
   <time name="diis">   82.75   83.44</time>
   <time name="orth">    0.70    0.70</time>
   <time name="total">   87.18   87.96</time>
   <energy>
    <i name="e_fr_energy">   -468.21507217 </i>
    <i name="e_wo_entrp">   -467.65876545 </i>
    <i name="e_0_energy">   -467.93691881 </i>
   </energy>
  </scstep>
  <scstep>
   <time name="diag">    2.92    3.00</time>
   <time name="diis">   80.76   81.48</time>
   <time name="orth">    0.70    0.70</time>
   <time name="total">   85.17   85.98</time>
   <energy>
    <i name="e_fr_energy">   -468.21587476 </i>
    <i name="e_wo_entrp">   -467.65960832 </i>
    <i name="e_0_energy">   -467.93774154 </i>
   </energy>
  </scstep>
  <scstep>
   <time name="diag">    2.95    3.02</time>
   <time name="diis">   73.79   76.39</time>
   <time name="orth">    0.69    0.70</time>
   <time name="total">   78.22   80.94</time>
   <energy>
    <i name="e_fr_energy">   -468.21646458 </i>
    <i name="e_wo_entrp">   -467.65975081 </i>
    <i name="e_0_energy">   -467.93810770 </i>
   </energy>
  </scstep>
  <scstep>
   <time name="diag">    2.93    3.00</time>
   <time name="diis">   73.29   74.14</time>
   <time name="orth">    0.70    0.70</time>
   <time name="total">   77.70   78.63</time>
   <energy>
    <i name="e_fr_energy">   -468.21688510 </i>
    <i name="e_wo_entrp">   -467.65970611 </i>
    <i name="e_0_energy">   -467.93829560 </i>
   </energy>
  </scstep>
  <scstep>
   <time name="diag">    2.98    3.00</time>
   <time name="diis">   74.58   74.82</time>
   <time name="orth">    0.70    0.70</time>
   <time name="total">   79.04   79.34</time>
   <energy>
    <i name="e_fr_energy">   -468.21722502 </i>
    <i name="e_wo_entrp">   -467.65970333 </i>
    <i name="e_0_energy">   -467.93846417 </i>
   </energy>
  </scstep>
  <scstep>
   <time name="diag">    3.01    3.02</time>
   <time name="diis">   74.05   74.35</time>
   <time name="orth">    0.73    0.74</time>
   <time name="total">   78.61   78.94</time>
   <energy>
    <i name="e_fr_energy">   -468.21749104 </i>
    <i name="e_wo_entrp">   -467.65979858 </i>
    <i name="e_0_energy">   -467.93864481 </i>
   </energy>
  </scstep>
  <scstep>
   <time name="diag">    3.01    3.02</time>
   <time name="diis">   71.90   72.09</time>
   <time name="orth">    0.70    0.70</time>
   <time name="total">   76.43   76.63</time>
   <energy>
    <i name="e_fr_energy">   -468.21771238 </i>
    <i name="e_wo_entrp">   -467.65990479 </i>
    <i name="e_0_energy">   -467.93880859 </i>
   </energy>
  </scstep>
  <scstep>
   <time name="diag">    3.01    3.01</time>
   <time name="diis">   53.91   54.10</time>
   <time name="orth">    0.71    0.71</time>
   <time name="total">   58.46   58.65</time>
   <energy>
    <i name="e_fr_energy">   -468.21786696 </i>
    <i name="e_wo_entrp">   -467.65997567 </i>
    <i name="e_0_energy">   -467.93892132 </i>
   </energy>
  </scstep>
  <scstep>
   <time name="diag">    3.00    3.00</time>
   <time name="diis">   50.83   50.93</time>
   <time name="orth">    0.70    0.70</time>
   <time name="total">   55.35   55.46</time>
   <energy>
    <i name="e_fr_energy">   -468.21799281 </i>
    <i name="e_wo_entrp">   -467.66001031 </i>
    <i name="e_0_energy">   -467.93900156 </i>
   </energy>
  </scstep>
  <scstep>
   <time name="diag">    2.99    3.01</time>
   <time name="diis">   60.14   60.33</time>
   <time name="orth">    0.70    0.70</time>
   <time name="total">   64.64   64.85</time>
   <energy>
    <i name="e_fr_energy">   -468.21808961 </i>
    <i name="e_wo_entrp">   -467.65999681 </i>
    <i name="e_0_energy">   -467.93904321 </i>
   </energy>
  </scstep>
  <scstep>
   <time name="diag">    3.00    3.01</time>
   <time name="diis">   50.64   50.83</time>
   <time name="orth">    0.69    0.69</time>
   <time name="total">   55.15   55.35</time>
   <energy>
    <i name="e_fr_energy">   -468.21816803 </i>
    <i name="e_wo_entrp">   -467.66003075 </i>
    <i name="e_0_energy">   -467.93909939 </i>
   </energy>
  </scstep>
  <scstep>
   <time name="diag">    2.98    2.99</time>
   <time name="diis">   49.75   49.97</time>
   <time name="orth">    0.69    0.69</time>
   <time name="total">   54.23   54.45</time>
   <energy>
    <i name="e_fr_energy">   -468.21823218 </i>
    <i name="e_wo_entrp">   -467.65998882 </i>
    <i name="e_0_energy">   -467.93911050 </i>
   </energy>
  </scstep>
  <scstep>
   <time name="diag">    3.00    3.00</time>
   <time name="diis">   48.42   48.54</time>
   <time name="orth">    0.69    0.69</time>
   <time name="total">   52.90   53.03</time>
   <energy>
    <i name="e_fr_energy">   -468.21827818 </i>
    <i name="e_wo_entrp">   -467.65998453 </i>
    <i name="e_0_energy">   -467.93913136 </i>
   </energy>
  </scstep>
  <scstep>
   <time name="diag">    3.00    3.01</time>
   <time name="diis">   48.58   48.65</time>
   <time name="orth">    0.73    0.75</time>
   <time name="total">   53.12   53.23</time>
   <energy>
    <i name="e_fr_energy">   -468.21831497 </i>
    <i name="e_wo_entrp">   -467.65998774 </i>
    <i name="e_0_energy">   -467.93915135 </i>
   </energy>
  </scstep>
  <scstep>
   <time name="diag">    2.99    2.99</time>
   <time name="diis">   48.20   48.33</time>
   <time name="orth">    0.69    0.69</time>
   <time name="total">   52.68   52.81</time>
   <energy>
    <i name="e_fr_energy">   -468.21834452 </i>
    <i name="e_wo_entrp">   -467.65997196 </i>
    <i name="e_0_energy">   -467.93915824 </i>
   </energy>
  </scstep>
  <scstep>
   <time name="diag">    2.99    3.02</time>
   <time name="diis">   48.04   48.21</time>
   <time name="orth">    0.69    0.69</time>
   <time name="total">   52.52   52.72</time>
   <energy>
    <i name="e_fr_energy">   -468.21836695 </i>
    <i name="e_wo_entrp">   -467.65994611 </i>
    <i name="e_0_energy">   -467.93915653 </i>
   </energy>
  </scstep>
  <scstep>
   <time name="diag">    3.00    3.00</time>
   <time name="diis">   47.46   47.70</time>
   <time name="orth">    0.69    0.70</time>
   <time name="total">   51.96   52.22</time>
   <energy>
    <i name="e_fr_energy">   -468.21838581 </i>
    <i name="e_wo_entrp">   -467.65993672 </i>
    <i name="e_0_energy">   -467.93916126 </i>
   </energy>
  </scstep>
  <scstep>
   <time name="diag">    2.99    3.00</time>
   <time name="diis">   46.94   47.06</time>
   <time name="orth">    0.69    0.69</time>
   <time name="total">   51.42   51.55</time>
   <energy>
    <i name="e_fr_energy">   -468.21840060 </i>
    <i name="e_wo_entrp">   -467.65992011 </i>
    <i name="e_0_energy">   -467.93916036 </i>
   </energy>
  </scstep>
  <scstep>
   <time name="diag">    2.99    2.99</time>
   <time name="diis">   45.77   46.03</time>
   <time name="orth">    0.69    0.72</time>
   <time name="total">   50.23   50.54</time>
   <energy>
    <i name="e_fr_energy">   -468.21841182 </i>
    <i name="e_wo_entrp">   -467.65990672 </i>
    <i name="e_0_energy">   -467.93915927 </i>
   </energy>
  </scstep>
  <scstep>
   <time name="diag">    3.00    3.01</time>
   <time name="diis">   45.77   45.97</time>
   <time name="orth">    0.71    0.72</time>
   <time name="total">   49.53   49.74</time>
   <energy>
    <i name="alphaZ">   2274.37165660 </i>
    <i name="ewald"> -33420.33344935 </i>
    <i name="hartreedc"> -11519.53028306 </i>
    <i name="XCdc">   1748.06917356 </i>
    <i name="pawpsdc">  28637.74785847 </i>
    <i name="pawaedc"> -28432.97823809 </i>
    <i name="eentropy">     -0.55852645 </i>
    <i name="bandstr">  -8661.50546355 </i>
    <i name="atom">  48906.49885061 </i>
    <i name="e_fr_energy">   -468.21842125 </i>
    <i name="e_wo_entrp">   -467.65989479 </i>
    <i name="e_0_energy">   -467.93915802 </i>
   </energy>
  </scstep>
  <structure>
   <crystal>
    <varray name="basis" >
     <v>      11.23999977       0.00000000       0.00000000 </v>
     <v>       0.00000000      11.23999977       0.00000000 </v>
     <v>       0.00000000       0.00000000      11.23999977 </v>
    </varray>
    <i name="volume">   1420.03453724 </i>
    <varray name="rec_basis" >
     <v>       0.08896797       0.00000000       0.00000000 </v>
     <v>       0.00000000       0.08896797       0.00000000 </v>
     <v>       0.00000000       0.00000000       0.08896797 </v>
    </varray>
   </crystal>
   <varray name="positions" >
    <v>       0.00000000       0.00000000       0.00000000 </v>
    <v>       0.25000000       0.00000000       0.25000000 </v>
    <v>       0.25000000       0.50000000       0.25000000 </v>
    <v>       0.50000000       0.50000000       0.00000000 </v>
    <v>       0.50000000       0.25000000       0.75000004 </v>
    <v>       0.00000000       0.50000000       0.50000000 </v>
    <v>       0.50000000       0.75000004       0.75000004 </v>
    <v>       0.00000000       0.25000000       0.25000000 </v>
    <v>       0.75000004       0.75000004       0.00000000 </v>
    <v>       0.00000000       0.25000000       0.75000004 </v>
    <v>       0.75000004       0.25000000       0.50000000 </v>
    <v>       0.00000000       0.75000004       0.75000004 </v>
    <v>       0.25000000       0.50000000       0.75000004 </v>
    <v>       0.25000000       0.25000000       0.00000000 </v>
    <v>       0.50000000       0.25000000       0.25000000 </v>
    <v>       0.75000004       0.00000000       0.25000000 </v>
    <v>       0.75000004       0.25000000       0.00000000 </v>
    <v>       0.25000000       0.75000004       0.00000000 </v>
    <v>       0.25000000       0.25000000       0.50000000 </v>
    <v>       0.25000000       0.75000004       0.50000000 </v>
    <v>       0.25000000       0.25000000       0.25000000 </v>
    <v>       0.25000000       0.00000000       0.00000000 </v>
    <v>       0.00000000       0.25000000       0.00000000 </v>
    <v>       0.75000004       0.25000000       0.25000000 </v>
    <v>       0.75000004       0.00000000       0.00000000 </v>
    <v>       0.50000000       0.00000000       0.25000000 </v>
    <v>       0.00000000       0.50000000       0.25000000 </v>
    <v>       0.50000000       0.75000004       0.00000000 </v>
    <v>       0.00000000       0.00000000       0.75000004 </v>
    <v>       0.75000004       0.25000000       0.75000004 </v>
    <v>       0.75000004       0.00000000       0.50000000 </v>
    <v>       0.50000000       0.25000000       0.50000000 </v>
    <v>       0.50000000       0.00000000       0.75000004 </v>
    <v>       0.00000000       0.00000000       0.25000000 </v>
    <v>       0.50000000       0.25000000       0.00000000 </v>
    <v>       0.25000000       0.75000004       0.25000000 </v>
    <v>       0.25000000       0.50000000       0.00000000 </v>
    <v>       0.00000000       0.75000004       0.00000000 </v>
    <v>       0.75000004       0.75000004       0.25000000 </v>
    <v>       0.75000004       0.50000000       0.00000000 </v>
    <v>       0.50000000       0.50000000       0.25000000 </v>
    <v>       0.25000000       0.25000000       0.75000004 </v>
    <v>       0.25000000       0.00000000       0.50000000 </v>
    <v>       0.00000000       0.25000000       0.50000000 </v>
    <v>       0.25000000       0.75000004       0.75000004 </v>
    <v>       0.25000000       0.50000000       0.50000000 </v>
    <v>       0.00000000       0.75000004       0.50000000 </v>
    <v>       0.00000000       0.50000000       0.75000004 </v>
    <v>       0.75000004       0.75000004       0.75000004 </v>
    <v>       0.75000004       0.50000000       0.50000000 </v>
    <v>       0.50000000       0.75000004       0.50000000 </v>
    <v>       0.50000000       0.50000000       0.75000004 </v>
    <v>       0.50000000       0.00000000       0.00000000 </v>
    <v>       0.00000000       0.50000000       0.00000000 </v>
    <v>       0.50000000       0.75000004       0.25000000 </v>
    <v>       0.25000000       0.00000000       0.75000004 </v>
    <v>       0.50000000       0.00000000       0.50000000 </v>
    <v>       0.75000004       0.00000000       0.75000004 </v>
    <v>       0.00000000       0.75000004       0.25000000 </v>
    <v>       0.75000004       0.50000000       0.25000000 </v>
    <v>       0.00000000       0.00000000       0.50000000 </v>
    <v>       0.50000000       0.50000000       0.50000000 </v>
    <v>       0.75000004       0.50000000       0.75000004 </v>
    <v>       0.75000004       0.75000004       0.50000000 </v>
   </varray>
  </structure>
  <varray name="forces" >
   <v>       0.00144394      -0.44632400       0.16767994 </v>
   <v>      -0.19975582      -0.51545231       0.36931264 </v>
   <v>       0.20535164       0.51196222       0.00889616 </v>
   <v>       0.08136192      -0.20731604      -0.01338981 </v>
   <v>      -0.22561929       0.06404865       0.17707152 </v>
   <v>      -0.11006045       0.13389375       0.23224236 </v>
   <v>       0.09293362      -0.11339803      -0.34303588 </v>
   <v>      -0.14073985      -0.39706132       0.64520103 </v>
   <v>       0.40961958      -0.52093559      -0.01426904 </v>
   <v>       0.30604711       0.38486398      -0.66023738 </v>
   <v>       0.57308441       0.47370157       0.31667003 </v>
   <v>      -0.14858678      -0.34861366      -0.15638761 </v>
   <v>       0.13357023       0.04120755      -0.00909513 </v>
   <v>       0.21110737       0.16708517      -0.47423284 </v>
   <v>       0.06764128       0.31724217      -0.14542470 </v>
   <v>       0.13668117      -0.55946126       0.16242959 </v>
   <v>      -0.25270776       0.35568786      -0.28654973 </v>
   <v>      -0.17437611      -0.13872324       0.03471371 </v>
   <v>      -0.27935822      -0.10663857       0.45863732 </v>
   <v>       0.01812830       0.10736296      -0.02838934 </v>
   <v>       0.06450548      -0.00662836      -0.07957841 </v>
   <v>       0.30457197       0.03093796      -0.21915733 </v>
   <v>       0.02444814       0.15049441       0.02340147 </v>
   <v>      -0.09156823      -0.68048421      -0.06992719 </v>
   <v>      -0.30561839       0.08741124       0.20140874 </v>
   <v>       0.54146046       0.33672715      -0.00507590 </v>
   <v>       0.10092115      -0.80186112      -0.35548740 </v>
   <v>      -0.00782989       0.31448786       0.19803919 </v>
   <v>      -0.07671516       0.06782653       0.15919045 </v>
   <v>       0.40144362      -0.46125728       0.03741778 </v>
   <v>      -0.43462770       0.70032140      -0.16366333 </v>
   <v>       0.02851635      -0.42669395      -0.51448387 </v>
   <v>       0.06055855       0.03698793       0.00155066 </v>
   <v>      -0.46384147       0.81307203      -0.12464725 </v>
   <v>       0.04052870      -0.57273250       0.45332346 </v>
   <v>       0.57011216       0.01329694      -0.08766940 </v>
   <v>      -0.45166541      -0.03280512      -0.40727009 </v>
   <v>      -0.22007700      -0.38434509      -0.60636414 </v>
   <v>      -0.55458769       0.50481533      -0.64297851 </v>
   <v>       0.47120898       0.16152926       0.05751270 </v>
   <v>      -0.01741625       0.10081829      -0.03908903 </v>
   <v>      -0.51201874       0.06231865       0.08240850 </v>
   <v>       0.60233054       0.07842156       0.50349387 </v>
   <v>      -0.23560553       0.04454672       0.00058326 </v>
   <v>      -0.47303685      -0.08812878       0.09150667 </v>
   <v>      -0.08421014      -0.08634327       0.45317380 </v>
   <v>       0.35754507      -0.07030450       0.72349970 </v>
   <v>       0.48157172      -0.05126494       0.49464676 </v>
   <v>       0.52178151       0.63551443       0.62100140 </v>
   <v>       0.05150341      -0.75229562      -0.04737328 </v>
   <v>      -0.32272797       0.64314788      -0.51399416 </v>
   <v>      -0.59346584      -0.00645691       0.02998162 </v>
   <v>       0.10650319       0.44606940      -0.13406207 </v>
   <v>      -0.13955091       0.55937020      -0.48780128 </v>
   <v>       0.04753973      -0.55342146       0.59514405 </v>
   <v>       0.07472001      -0.03147017      -0.58433217 </v>
   <v>      -0.48167602      -0.65612829       0.13533681 </v>
   <v>      -0.11878280      -0.60981373      -0.08019061 </v>
   <v>      -0.03916062       0.34241575       0.04263959 </v>
   <v>      -0.30627480       0.56494322       0.04890192 </v>
   <v>       0.32498564      -0.07289551      -0.22577015 </v>
   <v>       0.13425150       0.41122955       0.04100479 </v>
   <v>      -0.07453536       0.41948784      -0.03521557 </v>
   <v>      -0.01178140      -0.38399257      -0.01287885 </v>
  </varray>
  <varray name="stress" >
   <v>    -423.86716093      -0.21834331       0.16613980 </v>
   <v>      -0.21834337    -427.28657181       0.30765052 </v>
   <v>       0.16613933       0.30765147    -424.13744081 </v>
  </varray>
  <energy>
   <i name="e_fr_energy">   -468.21842125 </i>
   <i name="e_wo_entrp">   -467.93915802 </i>
   <i name="e_0_energy">     -0.55852645 </i>
  </energy>
  <time name="totalsc"> 4197.71 4230.53</time>
 </calculation>
 <calculation>
  <scstep>
   <time name="dav">   85.26   86.49</time>
   <time name="total">   85.98   87.21</time>
   <energy>
    <i name="alphaZ">   6196.33470995 </i>
    <i name="ewald"> -46692.63417430 </i>
    <i name="hartreedc"> -16067.85796121 </i>
    <i name="XCdc">   2510.15261532 </i>
    <i name="pawpsdc">  28637.74248912 </i>
    <i name="pawaedc"> -28432.97297842 </i>
    <i name="eentropy">     -0.04667174 </i>
    <i name="bandstr">    936.51258444 </i>
    <i name="atom">  48906.49885061 </i>
    <i name="e_fr_energy">  -4006.27053623 </i>
    <i name="e_wo_entrp">  -4006.22386449 </i>
    <i name="e_0_energy">  -4006.24720036 </i>
   </energy>
  </scstep>
  <scstep>
   <time name="diag">    2.99    3.00</time>
   <time name="diis">   90.07   90.34</time>
   <time name="orth">    0.69    0.69</time>
   <time name="total">   94.49   94.77</time>
   <energy>
    <i name="e_fr_energy">  -1453.25486435 </i>
    <i name="e_wo_entrp">  -1453.10183378 </i>
    <i name="e_0_energy">  -1453.17834906 </i>
   </energy>
  </scstep>
  <scstep>
   <time name="diag">    3.02    3.02</time>
   <time name="diis">   67.86   68.08</time>
   <time name="orth">    0.69    0.69</time>
   <time name="total">   72.29   72.52</time>
   <energy>
    <i name="e_fr_energy">   -644.88282259 </i>
    <i name="e_wo_entrp">   -644.75022448 </i>
    <i name="e_0_energy">   -644.81652354 </i>
   </energy>
  </scstep>
  <scstep>
   <time name="diag">    3.08    3.13</time>
   <time name="diis">   77.05   77.43</time>
   <time name="orth">    0.69    0.69</time>
   <time name="total">   81.53   81.96</time>
   <energy>
    <i name="e_fr_energy">   -711.19549961 </i>
    <i name="e_wo_entrp">   -711.08070981 </i>
    <i name="e_0_energy">   -711.13810471 </i>
   </energy>
  </scstep>
  <scstep>
   <time name="diag">    3.01    3.02</time>
   <time name="diis">   97.62   97.95</time>
   <time name="orth">    0.69    0.69</time>
   <time name="total">  102.01  102.37</time>
   <energy>
    <i name="e_fr_energy">   -632.48837246 </i>
    <i name="e_wo_entrp">   -632.38784183 </i>
    <i name="e_0_energy">   -632.43810715 </i>
   </energy>
  </scstep>
  <scstep>
   <time name="diag">    3.00    3.01</time>
   <time name="diis">   87.24   87.50</time>
   <time name="orth">    0.69    0.69</time>
   <time name="total">   91.64   91.92</time>
   <energy>
    <i name="e_fr_energy">   -603.82491512 </i>
    <i name="e_wo_entrp">   -603.69144219 </i>
    <i name="e_0_energy">   -603.75817866 </i>
   </energy>
  </scstep>
  <scstep>
   <time name="diag">    3.00    3.00</time>
   <time name="diis">   99.51   99.99</time>
   <time name="orth">    0.69    0.69</time>
   <time name="total">  103.91  104.41</time>
   <energy>
    <i name="e_fr_energy">   -606.15328414 </i>
    <i name="e_wo_entrp">   -606.03235405 </i>
    <i name="e_0_energy">   -606.09281910 </i>
   </energy>
  </scstep>
  <scstep>
   <time name="diag">    3.01    3.02</time>
   <time name="diis">  101.97  102.19</time>
   <time name="orth">    0.69    0.69</time>
   <time name="total">  106.41  106.64</time>
   <energy>
    <i name="e_fr_energy">   -604.85805749 </i>
    <i name="e_wo_entrp">   -604.72800383 </i>
    <i name="e_0_energy">   -604.79303066 </i>
   </energy>
  </scstep>
  <scstep>
   <time name="diag">    3.00    3.00</time>
   <time name="diis">   93.90   94.14</time>
   <time name="orth">    0.69    0.69</time>
   <time name="total">   98.29   98.54</time>
   <energy>
    <i name="e_fr_energy">   -604.91270087 </i>
    <i name="e_wo_entrp">   -604.77581052 </i>
    <i name="e_0_energy">   -604.84425569 </i>
   </energy>
  </scstep>
  <scstep>
   <time name="diag">    2.99    2.99</time>
   <time name="diis">  105.88  106.18</time>
   <time name="orth">    0.69    0.69</time>
   <time name="total">  110.28  110.58</time>
   <energy>
    <i name="e_fr_energy">   -605.41435734 </i>
    <i name="e_wo_entrp">   -605.27731680 </i>
    <i name="e_0_energy">   -605.34583707 </i>
   </energy>
  </scstep>
  <scstep>
   <time name="diag">    2.99    2.99</time>
   <time name="diis">   98.39   98.62</time>
   <time name="orth">    0.69    0.69</time>
   <time name="total">  102.77  103.02</time>
   <energy>
    <i name="e_fr_energy">   -605.57428365 </i>
    <i name="e_wo_entrp">   -605.44152410 </i>
    <i name="e_0_energy">   -605.50790387 </i>
   </energy>
  </scstep>
  <scstep>
   <time name="diag">    3.00    3.00</time>
   <time name="diis">  104.32  104.66</time>
   <time name="orth">    0.69    0.69</time>
   <time name="total">  108.72  109.06</time>
   <energy>
    <i name="e_fr_energy">   -605.62110278 </i>
    <i name="e_wo_entrp">   -605.48279421 </i>
    <i name="e_0_energy">   -605.55194849 </i>
   </energy>
  </scstep>
  <scstep>
   <time name="diag">    3.01    3.02</time>
   <time name="diis">  102.78  103.09</time>
   <time name="orth">    0.70    0.71</time>
   <time name="total">  107.22  107.56</time>
   <energy>
    <i name="e_fr_energy">   -605.60005454 </i>
    <i name="e_wo_entrp">   -605.46451046 </i>
    <i name="e_0_energy">   -605.53228250 </i>
   </energy>
  </scstep>
  <scstep>
   <time name="diag">    3.01    3.11</time>
   <time name="diis">   99.01  104.00</time>
   <time name="orth">    0.69    0.70</time>
   <time name="total">  103.42  108.55</time>
   <energy>
    <i name="e_fr_energy">   -605.61130828 </i>
    <i name="e_wo_entrp">   -605.47659420 </i>
    <i name="e_0_energy">   -605.54395124 </i>
   </energy>
  </scstep>
  <scstep>
   <time name="diag">    2.93    3.00</time>
   <time name="diis">  101.43  103.57</time>
   <time name="orth">    0.70    0.70</time>
   <time name="total">  105.77  107.99</time>
   <energy>
    <i name="e_fr_energy">   -605.59710230 </i>
    <i name="e_wo_entrp">   -605.46103179 </i>
    <i name="e_0_energy">   -605.52906704 </i>
   </energy>
  </scstep>
  <scstep>
   <time name="diag">    3.00    3.02</time>
   <time name="diis">  103.43  103.79</time>
   <time name="orth">    0.70    0.70</time>
   <time name="total">  107.86  108.23</time>
   <energy>
    <i name="e_fr_energy">   -605.59560321 </i>
    <i name="e_wo_entrp">   -605.45982641 </i>
    <i name="e_0_energy">   -605.52771481 </i>
   </energy>
  </scstep>
  <scstep>
   <time name="diag">    3.01    3.01</time>
   <time name="diis">  103.51  103.88</time>
   <time name="orth">    0.70    0.70</time>
   <time name="total">  107.95  108.32</time>
   <energy>
    <i name="e_fr_energy">   -605.59562943 </i>
    <i name="e_wo_entrp">   -605.46029292 </i>
    <i name="e_0_energy">   -605.52796117 </i>
   </energy>
  </scstep>
  <scstep>
   <time name="diag">    3.05    3.08</time>
   <time name="diis">  102.28  102.54</time>
   <time name="orth">    0.70    0.70</time>
   <time name="total">  106.75  107.06</time>
   <energy>
    <i name="e_fr_energy">   -605.59528254 </i>
    <i name="e_wo_entrp">   -605.45956556 </i>
    <i name="e_0_energy">   -605.52742405 </i>
   </energy>
  </scstep>
  <scstep>
   <time name="diag">    3.07    3.13</time>
   <time name="diis">  101.67  102.13</time>
   <time name="orth">    0.70    0.70</time>
   <time name="total">  106.17  106.69</time>
   <energy>
    <i name="e_fr_energy">   -605.59532239 </i>
    <i name="e_wo_entrp">   -605.45971276 </i>
    <i name="e_0_energy">   -605.52751757 </i>
   </energy>
  </scstep>
  <scstep>
   <time name="diag">    3.00    3.00</time>
   <time name="diis">   97.83   98.04</time>
   <time name="orth">    0.70    0.70</time>
   <time name="total">  102.23  102.45</time>
   <energy>
    <i name="e_fr_energy">   -605.59539947 </i>
    <i name="e_wo_entrp">   -605.45980150 </i>
    <i name="e_0_energy">   -605.52760049 </i>
   </energy>
  </scstep>
  <scstep>
   <time name="diag">    3.00    3.00</time>
   <time name="diis">   94.26   94.57</time>
   <time name="orth">    0.70    0.70</time>
   <time name="total">   98.66   99.00</time>
   <energy>
    <i name="e_fr_energy">   -605.59539296 </i>
    <i name="e_wo_entrp">   -605.45977185 </i>
    <i name="e_0_energy">   -605.52758241 </i>
   </energy>
  </scstep>
  <scstep>
   <time name="diag">    3.02    3.02</time>
   <time name="diis">   86.55   86.89</time>
   <time name="orth">    0.70    0.70</time>
   <time name="total">   90.98   91.33</time>
   <energy>
    <i name="e_fr_energy">   -605.59539918 </i>
    <i name="e_wo_entrp">   -605.45979058 </i>
    <i name="e_0_energy">   -605.52759488 </i>
   </energy>
  </scstep>
  <scstep>
   <time name="diag">    2.99    3.00</time>
   <time name="diis">   76.37   76.70</time>
   <time name="orth">    0.70    0.70</time>
   <time name="total">   80.79   81.13</time>
   <energy>
    <i name="e_fr_energy">   -605.59540214 </i>
    <i name="e_wo_entrp">   -605.45980092 </i>
    <i name="e_0_energy">   -605.52760153 </i>
   </energy>
  </scstep>
  <scstep>
   <time name="diag">    3.00    3.00</time>
   <time name="diis">   59.66   60.02</time>
   <time name="orth">    0.70    0.70</time>
   <time name="total">   63.41   63.77</time>
   <energy>
    <i name="alphaZ">   6196.33470995 </i>
    <i name="ewald"> -46692.63417430 </i>
    <i name="hartreedc">  -6454.73877796 </i>
    <i name="XCdc">   1965.73522072 </i>
    <i name="pawpsdc">  36402.55546157 </i>
    <i name="pawaedc"> -36199.35008554 </i>
    <i name="eentropy">     -0.13560034 </i>
    <i name="bandstr">  -4729.86100950 </i>
    <i name="atom">  48906.49885061 </i>
    <i name="e_fr_energy">   -605.59540479 </i>
    <i name="e_wo_entrp">   -605.45980445 </i>
    <i name="e_0_energy">   -605.52760462 </i>
   </energy>
  </scstep>
  <structure>
   <crystal>
    <varray name="basis" >
     <v>       8.05700726      -0.00163963       0.00124761 </v>
     <v>      -0.00163963       8.03132950       0.00231027 </v>
     <v>       0.00124761       0.00231028       8.05497762 </v>
    </varray>
    <i name="volume">    521.22528141 </i>
    <varray name="rec_basis" >
     <v>       0.12411557       0.00002534      -0.00001923 </v>
     <v>       0.00002534       0.12451240      -0.00003572 </v>
     <v>      -0.00001923      -0.00003572       0.12414685 </v>
    </varray>
   </crystal>
   <varray name="positions" >
    <v>       0.00000620      -0.00191565       0.00071969 </v>
    <v>       0.24914264      -0.00221235       0.25158511 </v>
    <v>       0.25088138       0.50219737       0.25003818 </v>
    <v>       0.50034921       0.49911019      -0.00005747 </v>
    <v>       0.49903163       0.25027490       0.75076004 </v>
    <v>      -0.00047239       0.50057468       0.50099680 </v>
    <v>       0.50039888       0.74951333       0.74852771 </v>
    <v>      -0.00060406       0.24829579       0.25276924 </v>
    <v>       0.75175815       0.74776416      -0.00006124 </v>
    <v>       0.00131357       0.25165186       0.74716627 </v>
    <v>       0.75245975       0.25203315       0.50135916 </v>
    <v>      -0.00063774       0.74850377       0.74932882 </v>
    <v>       0.25057329       0.50017686       0.74996101 </v>
    <v>       0.25090608       0.25071714      -0.00203543 </v>
    <v>       0.50029032       0.25136162       0.24937583 </v>
    <v>       0.75058668      -0.00240124       0.25069716 </v>
    <v>       0.74891541       0.25152663      -0.00122989 </v>
    <v>       0.24925157       0.74940463       0.00014899 </v>
    <v>       0.24880098       0.24954230       0.50196849 </v>
    <v>       0.25007781       0.75046085       0.49987815 </v>
    <v>       0.25027686       0.24997155       0.24965845 </v>
    <v>       0.25130724       0.00013279      -0.00094063 </v>
    <v>       0.00010493       0.25064593       0.00010044 </v>
    <v>       0.74960703       0.24707933       0.24969987 </v>
    <v>       0.74868831       0.00037517       0.00086446 </v>
    <v>       0.50232398       0.00144525       0.24997821 </v>
    <v>       0.00043316       0.49655837       0.24847423 </v>
    <v>       0.49996639       0.75134984       0.00084999 </v>
    <v>      -0.00032927       0.00029111       0.75068330 </v>
    <v>       0.75172306       0.24802026       0.75016064 </v>
    <v>       0.74813460       0.00300582       0.49929755 </v>
    <v>       0.50012239       0.24816861       0.49779181 </v>
    <v>       0.50025992       0.00015875       0.75000670 </v>
    <v>      -0.00199083       0.00348975       0.24946501 </v>
    <v>       0.50017395       0.24754180       0.00194569 </v>
    <v>       0.25244695       0.75005711       0.24962372 </v>
    <v>       0.24806143       0.49985920      -0.00174802 </v>
    <v>      -0.00094458       0.74835041      -0.00260255 </v>
    <v>       0.74761972       0.75216674       0.24724030 </v>
    <v>       0.75202250       0.50069329       0.00024685 </v>
    <v>       0.49992525       0.50043272       0.24983223 </v>
    <v>       0.24780239       0.25026747       0.75035374 </v>
    <v>       0.25258523       0.00033659       0.50216102 </v>
    <v>      -0.00101123       0.25019120       0.50000250 </v>
    <v>       0.24796970       0.74962179       0.75039279 </v>
    <v>       0.24963857       0.49962941       0.50194505 </v>
    <v>       0.00153460       0.74969829       0.50310530 </v>
    <v>       0.00206693       0.49977997       0.75212309 </v>
    <v>       0.75223955       0.75272770       0.75266541 </v>
    <v>       0.75022110       0.49677111       0.49979667 </v>
    <v>       0.49861484       0.75276047       0.49779391 </v>
    <v>       0.49745281       0.49997229       0.75012872 </v>
    <v>       0.50045712       0.00191455      -0.00057540 </v>
    <v>      -0.00059896       0.50240085      -0.00209367 </v>
    <v>       0.50020404       0.74762473       0.25255439 </v>
    <v>       0.25032070      -0.00013507       0.74749206 </v>
    <v>       0.49793262      -0.00281614       0.50058087 </v>
    <v>       0.74949022      -0.00261735       0.74965586 </v>
    <v>      -0.00016808       0.75146971       0.25018301 </v>
    <v>       0.74868549       0.50242477       0.25020989 </v>
    <v>       0.00139486      -0.00031287       0.49903098 </v>
    <v>       0.50057621       0.50176502       0.50017599 </v>
    <v>       0.74968013       0.50180046       0.74984889 </v>
    <v>       0.74994948       0.74835193       0.49994472 </v>
   </varray>
  </structure>
  <varray name="forces" >
   <v>       0.13330507      -0.73154254       0.74211905 </v>
   <v>      -0.36070932      -0.08173900      -0.02052016 </v>
   <v>       0.26043512       0.29319538       0.19591398 </v>
   <v>       0.47827419      -0.51250570      -0.39403983 </v>
   <v>       0.32163207       0.19152680      -0.29130365 </v>
   <v>      -0.73064171       0.58265772      -0.36464221 </v>
   <v>       0.75914144      -0.55874630      -0.60070493 </v>
   <v>       0.40708987      -0.13205156       0.48494637 </v>
   <v>      -0.32321282      -0.51176706       0.15137813 </v>
   <v>      -0.99817295      -0.26868964      -0.07892981 </v>
   <v>      -0.39362814       1.24709061       0.56214076 </v>
   <v>      -0.95683956       0.16770673      -0.74703968 </v>
   <v>       1.52139946      -0.18581579      -0.29453409 </v>
   <v>      -0.39768431      -1.28699301       1.17284901 </v>
   <v>      -0.44256898       1.19314283       0.61550385 </v>
   <v>       0.89885074      -0.72309005       0.59512097 </v>
   <v>       0.33562239       0.15856403      -0.66113788 </v>
   <v>       0.39235764       0.97426755       0.85291415 </v>
   <v>       0.63774615       0.10810235      -1.25538413 </v>
   <v>      -0.49783406      -0.22803431      -0.88852180 </v>
   <v>      -0.57179242       0.12988209      -0.03886567 </v>
   <v>      -1.37927185      -0.16143771       1.56792718 </v>
   <v>       0.15943500      -1.36926645       0.20248542 </v>
   <v>       0.42724128       2.46374107       0.41627496 </v>
   <v>       1.68917545      -0.51493756      -0.63807627 </v>
   <v>      -2.42152451      -0.74035341       0.02497803 </v>
   <v>      -0.42088383       2.19273003       1.48023213 </v>
   <v>       0.40951075      -1.69794660      -1.58654681 </v>
   <v>       0.00280793      -0.08580942      -0.40491329 </v>
   <v>      -2.07702207       2.06957495      -0.43633550 </v>
   <v>       1.87075848      -2.38250905       0.80604465 </v>
   <v>       0.60867862       1.93964993       2.41690553 </v>
   <v>      -0.11653214      -0.05340936      -0.11176317 </v>
   <v>       2.53558212      -2.78137943       0.46950303 </v>
   <v>      -0.07801513       1.98473063      -2.50496683 </v>
   <v>      -1.92034755      -0.13224024       0.12689568 </v>
   <v>       1.27595267       0.26477794       2.30344557 </v>
   <v>      -0.13336644       1.86533376       2.40450874 </v>
   <v>       2.21381121      -3.53303918       2.67826152 </v>
   <v>      -1.62709600       0.52647707       0.13667313 </v>
   <v>       0.44593646       1.09181961       0.58399386 </v>
   <v>       2.27749557      -0.21419126      -0.08830973 </v>
   <v>      -2.04101713      -0.22849490      -1.73578409 </v>
   <v>      -0.14466692      -0.29435211      -0.12210272 </v>
   <v>       2.00373839       0.38489515      -0.08194498 </v>
   <v>       0.51409962       0.15434834      -2.29750185 </v>
   <v>      -3.09467492       0.50159416      -2.65940690 </v>
   <v>      -2.57659312       0.12894792      -1.89039921 </v>
   <v>      -2.29911084      -2.52283836      -2.71578310 </v>
   <v>      -0.54237177       3.21918575      -0.05245777 </v>
   <v>       2.89237242      -2.65498485       2.04475105 </v>
   <v>       2.81635850       0.09244621      -0.70249471 </v>
   <v>      -0.18777142       0.86327981      -0.21017534 </v>
   <v>      -0.51897846       0.38353063       0.44030292 </v>
   <v>      -0.02387912      -1.37213803       0.55113958 </v>
   <v>      -0.28034345       0.11552746       0.29091187 </v>
   <v>      -0.41178264      -0.49536423       0.11856369 </v>
   <v>      -0.06669234      -0.60793625      -0.27786498 </v>
   <v>      -0.03587566       0.68259355       0.32161140 </v>
   <v>      -0.74118970       0.90395047       0.36746309 </v>
   <v>       0.42895164      -0.08549520      -0.79884494 </v>
   <v>       0.78229700       0.72360146       0.29438848 </v>
   <v>      -0.96856102       0.73279789      -0.21608735 </v>
   <v>       0.28059506      -1.18257127      -0.25276442 </v>
  </varray>
  <varray name="stress" >
   <v>    1354.36875184       9.32371177      -6.77485259 </v>
   <v>       9.32370730    1445.94579726       0.72455553 </v>
   <v>      -6.77485241       0.72455826    1355.00715660 </v>
  </varray>
  <energy>
   <i name="e_fr_energy">   -605.59540479 </i>
   <i name="e_wo_entrp">   -605.52760462 </i>
   <i name="e_0_energy">     -0.13560034 </i>
  </energy>
  <time name="totalsc"> 2495.22 2512.15</time>
 </calculation>
 <calculation>
  <scstep>
   <time name="dav">   91.24   93.76</time>
   <time name="total">   91.96   94.51</time>
   <energy>
    <i name="alphaZ">   4588.93959381 </i>
    <i name="ewald"> -42241.27206975 </i>
    <i name="hartreedc">  -5844.92625279 </i>
    <i name="XCdc">   1768.40982752 </i>
    <i name="pawpsdc">  36402.61243186 </i>
    <i name="pawaedc"> -36199.39591495 </i>
    <i name="eentropy">     -0.17607828 </i>
    <i name="bandstr">  -8497.15443017 </i>
    <i name="atom">  48906.49885061 </i>
    <i name="e_fr_energy">  -1116.46404214 </i>
    <i name="e_wo_entrp">  -1116.28796386 </i>
    <i name="e_0_energy">  -1116.37600300 </i>
   </energy>
  </scstep>
  <scstep>
   <time name="diag">    2.93    3.01</time>
   <time name="diis">   77.05   77.41</time>
   <time name="orth">    0.70    0.70</time>
   <time name="total">   81.37   81.82</time>
   <energy>
    <i name="e_fr_energy">  -1457.38937000 </i>
    <i name="e_wo_entrp">  -1457.36842620 </i>
    <i name="e_0_energy">  -1457.37889810 </i>
   </energy>
  </scstep>
  <scstep>
   <time name="diag">    3.01    3.04</time>
   <time name="diis">   89.59   90.08</time>
   <time name="orth">    0.69    0.70</time>
[...]
      </set>
     </set>
    </set>
   </array>
  </eigenvalues>
  <separator name="orbital magnetization" >
   <v name="MAGDIPOLOUT">      0.00000000      0.00000000      0.00000000</v>
  </separator>
  <dos>
   <i name="efermi">      8.04926706 </i>
   <total>
    <array>
     <dimension dim="1">gridpoints</dimension>
     <dimension dim="2">spin</dimension>
     <field>energy</field>
     <field>total</field>
     <field>integrated</field>
     <set>
      <set comment="spin 1">
       <r>   -60.2164     0.0000     0.0000 </r>
       <r>   -59.9688     0.0000     0.0000 </r>
       <r>   -59.7212     0.0000     0.0000 </r>
       <r>   -59.4735     0.0000     0.0000 </r>
       <r>   -59.2259     0.0000     0.0000 </r>
       <r>   -58.9782     0.0000     0.0000 </r>
       <r>   -58.7306     0.0000     0.0000 </r>
       <r>   -58.4830     0.0000     0.0000 </r>
       <r>   -58.2353     0.0000     0.0000 </r>
       <r>   -57.9877     0.0000     0.0000 </r>
       <r>   -57.7401     0.0000     0.0000 </r>
       <r>   -57.4924     0.0000     0.0000 </r>
       <r>   -57.2448     0.0000     0.0000 </r>
       <r>   -56.9972     0.1507     0.0373 </r>
       <r>   -56.7495    26.8286     6.6810 </r>
       <r>   -56.5019    21.4215    11.9858 </r>
       <r>   -56.2543     0.0575    12.0000 </r>
       <r>   -56.0066     0.0000    12.0000 </r>
       <r>   -55.7590     0.0000    12.0000 </r>
       <r>   -55.5114     0.0000    12.0000 </r>
       <r>   -55.2637     0.0000    12.0000 </r>
       <r>   -55.0161     0.0000    12.0000 </r>
       <r>   -54.7684     0.0000    12.0000 </r>
       <r>   -54.5208     0.0000    12.0000 </r>
       <r>   -54.2732     0.0000    12.0000 </r>
       <r>   -54.0255     0.0000    12.0000 </r>
       <r>   -53.7779     0.0000    12.0000 </r>
       <r>   -53.5303     0.0000    12.0000 </r>
       <r>   -53.2826     0.0000    12.0000 </r>
       <r>   -53.0350     0.0000    12.0000 </r>
       <r>   -52.7874     0.0000    12.0000 </r>
       <r>   -52.5397     0.0000    12.0000 </r>
       <r>   -52.2921     0.0000    12.0000 </r>
       <r>   -52.0445     0.0000    12.0000 </r>
       <r>   -51.7968     0.0000    12.0000 </r>
       <r>   -51.5492     0.0000    12.0000 </r>
       <r>   -51.3016     0.0000    12.0000 </r>
       <r>   -51.0539     0.0000    12.0000 </r>
       <r>   -50.8063     0.0000    12.0000 </r>
       <r>   -50.5586     0.0000    12.0000 </r>
       <r>   -50.3110     0.0000    12.0000 </r>
       <r>   -50.0634     0.0000    12.0000 </r>
       <r>   -49.8157     0.0141    12.0035 </r>
       <r>   -49.5681     5.9256    13.4709 </r>
       <r>   -49.3205    27.7290    20.3376 </r>
       <r>   -49.0728    21.4106    25.6396 </r>
       <r>   -48.8252     1.4554    26.0000 </r>
       <r>   -48.5776     0.0000    26.0000 </r>
       <r>   -48.3299     0.0000    26.0000 </r>
       <r>   -48.0823     0.0000    26.0000 </r>
       <r>   -47.8347     0.0000    26.0000 </r>
       <r>   -47.5870     0.0000    26.0000 </r>
       <r>   -47.3394     0.0000    26.0000 </r>
       <r>   -47.0918     0.0000    26.0000 </r>
       <r>   -46.8441     0.0000    26.0000 </r>
       <r>   -46.5965     0.0000    26.0000 </r>
       <r>   -46.3489     0.0000    26.0000 </r>
       <r>   -46.1012     0.0000    26.0000 </r>
       <r>   -45.8536     0.0000    26.0000 </r>
       <r>   -45.6059     0.0000    26.0000 </r>
       <r>   -45.3583     0.0000    26.0000 </r>
       <r>   -45.1107     0.0000    26.0000 </r>
       <r>   -44.8630     0.0000    26.0000 </r>
       <r>   -44.6154     0.0000    26.0000 </r>
       <r>   -44.3678     0.0000    26.0000 </r>
       <r>   -44.1201     0.0000    26.0000 </r>
       <r>   -43.8725     0.0000    26.0000 </r>
       <r>   -43.6249     0.0000    26.0000 </r>
       <r>   -43.3772     0.0000    26.0000 </r>
       <r>   -43.1296     0.0000    26.0000 </r>
       <r>   -42.8820     0.0000    26.0000 </r>
       <r>   -42.6343     0.0000    26.0000 </r>
       <r>   -42.3867     0.0000    26.0000 </r>
       <r>   -42.1391     0.0000    26.0000 </r>
       <r>   -41.8914     0.0000    26.0000 </r>
       <r>   -41.6438     0.0000    26.0000 </r>
       <r>   -41.3961     0.0000    26.0000 </r>
       <r>   -41.1485     0.0000    26.0000 </r>
       <r>   -40.9009     0.0000    26.0000 </r>
       <r>   -40.6532     0.0000    26.0000 </r>
       <r>   -40.4056     0.0000    26.0000 </r>
       <r>   -40.1580     0.0000    26.0000 </r>
       <r>   -39.9103     0.0000    26.0000 </r>
       <r>   -39.6627     0.0000    26.0000 </r>
       <r>   -39.4151     0.0000    26.0000 </r>
       <r>   -39.1674     0.0000    26.0000 </r>
       <r>   -38.9198     0.0000    26.0000 </r>
       <r>   -38.6722     0.0000    26.0000 </r>
       <r>   -38.4245     0.0000    26.0000 </r>
       <r>   -38.1769     0.0000    26.0000 </r>
       <r>   -37.9293     0.0000    26.0000 </r>
       <r>   -37.6816     0.0000    26.0000 </r>
       <r>   -37.4340     0.0000    26.0000 </r>
       <r>   -37.1863     0.0000    26.0000 </r>
       <r>   -36.9387     0.0000    26.0000 </r>
       <r>   -36.6911     0.0000    26.0000 </r>
       <r>   -36.4434     0.0000    26.0000 </r>
       <r>   -36.1958     0.0000    26.0000 </r>
       <r>   -35.9482     0.0000    26.0000 </r>
       <r>   -35.7005     0.0000    26.0000 </r>
       <r>   -35.4529     0.0000    26.0000 </r>
       <r>   -35.2053     0.0000    26.0000 </r>
       <r>   -34.9576     0.0000    26.0000 </r>
       <r>   -34.7100     0.0000    26.0000 </r>
       <r>   -34.4624     0.0000    26.0000 </r>
       <r>   -34.2147     0.0000    26.0000 </r>
       <r>   -33.9671     0.0000    26.0000 </r>
       <r>   -33.7195     0.0000    26.0000 </r>
       <r>   -33.4718     0.0000    26.0000 </r>
       <r>   -33.2242     0.0000    26.0000 </r>
       <r>   -32.9765     0.0000    26.0000 </r>
       <r>   -32.7289     0.0000    26.0000 </r>
       <r>   -32.4813     0.0000    26.0000 </r>
       <r>   -32.2336     0.0000    26.0000 </r>
       <r>   -31.9860     0.0005    26.0001 </r>
       <r>   -31.7384     3.0790    26.7626 </r>
       <r>   -31.4907    22.8688    32.4257 </r>
       <r>   -31.2431    57.2285    46.5975 </r>
       <r>   -30.9955    61.0891    61.7254 </r>
       <r>   -30.7478    58.6874    76.2584 </r>
       <r>   -30.5002    83.4294    96.9185 </r>
       <r>   -30.2526     4.3674    98.0000 </r>
       <r>   -30.0049     0.0001    98.0000 </r>
       <r>   -29.7573     0.0000    98.0000 </r>
       <r>   -29.5097     0.0000    98.0000 </r>
       <r>   -29.2620     0.0000    98.0000 </r>
       <r>   -29.0144     0.0000    98.0000 </r>
       <r>   -28.7667     0.0000    98.0000 </r>
       <r>   -28.5191     0.0000    98.0000 </r>
       <r>   -28.2715     0.0000    98.0000 </r>
       <r>   -28.0238     0.0000    98.0000 </r>
       <r>   -27.7762     0.0014    98.0004 </r>
       <r>   -27.5286     5.6396    99.3969 </r>
       <r>   -27.2809    41.3015   109.6246 </r>
       <r>   -27.0333    65.6783   125.8889 </r>
       <r>   -26.7857    30.0485   133.3300 </r>
       <r>   -26.5380     2.7057   134.0000 </r>
       <r>   -26.2904     0.0034   134.0008 </r>
       <r>   -26.0428     6.6994   135.6598 </r>
       <r>   -25.7951    45.8192   147.0063 </r>
       <r>   -25.5475    93.8829   170.2550 </r>
       <r>   -25.2999    23.0846   175.9716 </r>
       <r>   -25.0522     0.1148   176.0000 </r>
       <r>   -24.8046     0.0000   176.0000 </r>
       <r>   -24.5570     0.0000   176.0000 </r>
       <r>   -24.3093     0.0000   176.0000 </r>
       <r>   -24.0617     0.0000   176.0000 </r>
       <r>   -23.8140     0.0000   176.0000 </r>
       <r>   -23.5664     0.0000   176.0000 </r>
       <r>   -23.3188     0.0612   176.0152 </r>
       <r>   -23.0711    14.6415   179.6409 </r>
       <r>   -22.8235    39.4278   189.4046 </r>
       <r>   -22.5759    23.9589   195.3377 </r>
       <r>   -22.3282    53.3517   208.5495 </r>
       <r>   -22.0806    16.0221   212.5171 </r>
       <r>   -21.8330    21.6287   217.8731 </r>
       <r>   -21.5853     0.5123   218.0000 </r>
       <r>   -21.3377     0.0000   218.0000 </r>
       <r>   -21.0901     0.0000   218.0000 </r>
       <r>   -20.8424     0.0000   218.0000 </r>
       <r>   -20.5948     0.0000   218.0000 </r>
       <r>   -20.3472     0.0000   218.0000 </r>
       <r>   -20.0995     0.0000   218.0000 </r>
       <r>   -19.8519     0.0000   218.0000 </r>
       <r>   -19.6042     0.0000   218.0000 </r>
       <r>   -19.3566     0.0000   218.0000 </r>
       <r>   -19.1090     0.0000   218.0000 </r>
       <r>   -18.8613     0.0000   218.0000 </r>
       <r>   -18.6137     0.0000   218.0000 </r>
       <r>   -18.3661     0.0000   218.0000 </r>
       <r>   -18.1184     0.0000   218.0000 </r>
       <r>   -17.8708     0.0000   218.0000 </r>
       <r>   -17.6232     0.0000   218.0000 </r>
       <r>   -17.3755     0.0000   218.0000 </r>
       <r>   -17.1279     0.0000   218.0000 </r>
       <r>   -16.8803     0.0000   218.0000 </r>
       <r>   -16.6326     0.0000   218.0000 </r>
       <r>   -16.3850     0.0000   218.0000 </r>
       <r>   -16.1374     0.0000   218.0000 </r>
       <r>   -15.8897     0.0000   218.0000 </r>
       <r>   -15.6421     0.0000   218.0000 </r>
       <r>   -15.3944     0.0000   218.0000 </r>
       <r>   -15.1468     0.0000   218.0000 </r>
       <r>   -14.8992     0.0000   218.0000 </r>
       <r>   -14.6515     0.0000   218.0000 </r>
       <r>   -14.4039     0.0000   218.0000 </r>
       <r>   -14.1563     0.0000   218.0000 </r>
       <r>   -13.9086     0.0000   218.0000 </r>
       <r>   -13.6610     0.0000   218.0000 </r>
       <r>   -13.4134     0.0000   218.0000 </r>
       <r>   -13.1657     0.0000   218.0000 </r>
       <r>   -12.9181     0.0000   218.0000 </r>
       <r>   -12.6705     0.0000   218.0000 </r>
       <r>   -12.4228     0.0000   218.0000 </r>
       <r>   -12.1752     0.0000   218.0000 </r>
       <r>   -11.9276     0.0000   218.0000 </r>
       <r>   -11.6799     0.0000   218.0000 </r>
       <r>   -11.4323     0.0000   218.0000 </r>
       <r>   -11.1846     0.0000   218.0000 </r>
       <r>   -10.9370     0.0000   218.0000 </r>
       <r>   -10.6894     0.0000   218.0000 </r>
       <r>   -10.4417     0.0000   218.0000 </r>
       <r>   -10.1941     0.0000   218.0000 </r>
       <r>    -9.9465     0.0000   218.0000 </r>
       <r>    -9.6988     0.0000   218.0000 </r>
       <r>    -9.4512     0.0000   218.0000 </r>
       <r>    -9.2036     0.0000   218.0000 </r>
       <r>    -8.9559     0.1617   218.0401 </r>
       <r>    -8.7083     5.1811   219.3231 </r>
       <r>    -8.4607     2.7960   220.0155 </r>
       <r>    -8.2130     6.6842   221.6707 </r>
       <r>    -7.9654     4.3463   222.7470 </r>
       <r>    -7.7178    11.6607   225.6346 </r>
       <r>    -7.4701    13.9626   229.0922 </r>
       <r>    -7.2225    25.2655   235.3489 </r>
       <r>    -6.9748    15.7165   239.2408 </r>
       <r>    -6.7272    10.3229   241.7971 </r>
       <r>    -6.4796     8.8175   243.9806 </r>
       <r>    -6.2319     0.0782   244.0000 </r>
       <r>    -5.9843     0.0000   244.0000 </r>
       <r>    -5.7367     0.0000   244.0000 </r>
       <r>    -5.4890     0.0000   244.0000 </r>
       <r>    -5.2414     0.0000   244.0000 </r>
       <r>    -4.9938     0.0341   244.0084 </r>
       <r>    -4.7461     3.7682   244.9416 </r>
       <r>    -4.4985     4.9089   246.1572 </r>
       <r>    -4.2509     7.1972   247.9395 </r>
       <r>    -4.0032     8.8586   250.1332 </r>
       <r>    -3.7556    10.6416   252.7684 </r>
       <r>    -3.5080    22.4462   258.3269 </r>
       <r>    -3.2603    22.6035   263.9243 </r>
       <r>    -3.0127    26.5509   270.4992 </r>
       <r>    -2.7650    16.3477   274.5475 </r>
       <r>    -2.5174    17.8360   278.9643 </r>
       <r>    -2.2698    10.4022   281.5403 </r>
       <r>    -2.0221     1.8466   281.9975 </r>
       <r>    -1.7745     0.0099   282.0000 </r>
       <r>    -1.5269     0.0000   282.0000 </r>
       <r>    -1.2792     0.0000   282.0000 </r>
       <r>    -1.0316     0.0000   282.0000 </r>
       <r>    -0.7840     0.0000   282.0000 </r>
       <r>    -0.5363     0.0249   282.0062 </r>
       <r>    -0.2887     0.9633   282.2447 </r>
       <r>    -0.0411     5.3111   283.5599 </r>
       <r>     0.2066     8.3017   285.6157 </r>
       <r>     0.4542     9.1554   287.8829 </r>
       <r>     0.7018    10.9313   290.5899 </r>
       <r>     0.9495    16.2780   294.6209 </r>
       <r>     1.1971    23.9311   300.5471 </r>
       <r>     1.4447    26.5696   307.1266 </r>
       <r>     1.6924    25.2429   313.3777 </r>
       <r>     1.9400    29.2403   320.6186 </r>
       <r>     2.1877    32.0776   328.5621 </r>
       <r>     2.4353    34.0201   336.9867 </r>
       <r>     2.6829    39.2068   346.6957 </r>
       <r>     2.9306    46.7902   358.2826 </r>
       <r>     3.1782    51.5750   371.0544 </r>
       <r>     3.4258    54.6693   384.5924 </r>
       <r>     3.6735    55.2633   398.2776 </r>
       <r>     3.9211    53.3033   411.4773 </r>
       <r>     4.1687    54.1937   424.8976 </r>
       <r>     4.4164    48.5865   436.9294 </r>
       <r>     4.6640    39.0322   446.5951 </r>
       <r>     4.9116    33.1594   454.8065 </r>
       <r>     5.1593    28.5140   461.8676 </r>
       <r>     5.4069    18.5096   466.4512 </r>
       <r>     5.6545    16.7890   470.6088 </r>
       <r>     5.9022    12.1905   473.6276 </r>
       <r>     6.1498    10.2093   476.1558 </r>
       <r>     6.3975    14.3128   479.7001 </r>
       <r>     6.6451    13.5975   483.0674 </r>
       <r>     6.8927    14.6200   486.6878 </r>
       <r>     7.1404    20.9603   491.8783 </r>
       <r>     7.3880    18.0148   496.3394 </r>
       <r>     7.6356    19.6759   501.2118 </r>
       <r>     7.8833    23.7958   507.1045 </r>
       <r>     8.1309    22.0758   512.5712 </r>
       <r>     8.3785    23.4353   518.3746 </r>
       <r>     8.6262    32.6543   526.4610 </r>
       <r>     8.8738    42.8475   537.0715 </r>
       <r>     9.1214    48.5834   549.1025 </r>
       <r>     9.3691    46.4266   560.5994 </r>
       <r>     9.6167    52.4268   573.5821 </r>
       <r>     9.8643    54.3727   587.0467 </r>
       <r>    10.1120    54.6121   600.5706 </r>
       <r>    10.3596    53.0921   613.7180 </r>
       <r>    10.6073    34.8598   622.3505 </r>
       <r>    10.8549     6.6408   623.9950 </r>
       <r>    11.1025     0.0201   624.0000 </r>
       <r>    11.3502     0.0000   624.0000 </r>
       <r>    11.5978     0.0000   624.0000 </r>
       <r>    11.8454     0.0000   624.0000 </r>
       <r>    12.0931     0.0000   624.0000 </r>
       <r>    12.3407     0.0000   624.0000 </r>
       <r>    12.5883     0.0000   624.0000 </r>
       <r>    12.8360     0.0000   624.0000 </r>
       <r>    13.0836     0.0000   624.0000 </r>
       <r>    13.3312     0.0000   624.0000 </r>
       <r>    13.5789     0.0000   624.0000 </r>
       <r>    13.8265     0.0000   624.0000 </r>
       <r>    14.0741     0.0000   624.0000 </r>
      </set>
     </set>
    </array>
   </total>
  </dos>
 </calculation>
 <structure name="finalpos" >
  <crystal>
   <varray name="basis" >
    <v>       8.77932051       0.00053446       0.01813960 </v>
    <v>       0.00052233       8.87452097      -0.00412103 </v>
    <v>       0.01814248      -0.00399026       8.77716495 </v>
   </varray>
   <i name="volume">    683.84572522 </i>
   <varray name="rec_basis" >
    <v>       0.11390452      -0.00000681      -0.00023544 </v>
    <v>      -0.00000697       0.11268216       0.00005124 </v>
    <v>      -0.00023541       0.00005292       0.11393252 </v>
   </varray>
  </crystal>
  <varray name="positions" >
   <v>      -0.00165174      -0.01457207       0.00985028 </v>
   <v>       0.24573646      -0.00728131       0.25327020 </v>
   <v>       0.25439118       0.50800008       0.24950823 </v>
   <v>       0.50273341       0.49027332      -0.00492066 </v>
   <v>       0.49536238       0.24908823       0.75209077 </v>
   <v>      -0.00353332       0.50435148       0.50005948 </v>
   <v>       0.50305978       0.74656098       0.74078096 </v>
   <v>      -0.00079730       0.24280825       0.25866099 </v>
   <v>       0.75110116       0.74407898       0.00759628 </v>
   <v>       0.00496318       0.25490496       0.74224958 </v>
   <v>       0.75115052       0.26592820       0.50758824 </v>
   <v>      -0.00552292       0.74688632       0.74580623 </v>
   <v>       0.25743273       0.49812738       0.74742755 </v>
   <v>       0.24704512       0.24684740      -0.00043997 </v>
   <v>       0.50174872       0.25566120       0.25037277 </v>
   <v>       0.75133144      -0.00959573       0.26376430 </v>
   <v>       0.75474460       0.25428826      -0.00649540 </v>
   <v>       0.25647926       0.75384359      -0.00019625 </v>
   <v>       0.25186945       0.25029809       0.49848082 </v>
   <v>       0.24506190       0.74870670       0.49912794 </v>
   <v>       0.24931886       0.25017909       0.24839749 </v>
   <v>       0.25544963       0.00062555       0.00059936 </v>
   <v>       0.00135832       0.24458118       0.00088726 </v>
   <v>       0.75187775       0.24984310       0.25409218 </v>
   <v>       0.75709942      -0.00182068       0.01019558 </v>
   <v>       0.49804829      -0.00190445       0.24520708 </v>
   <v>      -0.00061705       0.49064682       0.24593455 </v>
   <v>       0.50596750       0.75646515       0.00116815 </v>
   <v>      -0.00960280       0.00245262       0.74798521 </v>
   <v>       0.74872172       0.24674993       0.74744548 </v>
   <v>       0.73943757       0.00414159       0.51062282 </v>
   <v>       0.50563194       0.24238765       0.50261833 </v>
   <v>       0.49748873      -0.00099805       0.74050462 </v>
   <v>       0.00318609      -0.00246619       0.25254395 </v>
   <v>       0.50224615       0.25452637      -0.00428262 </v>
   <v>       0.25141196       0.74920653       0.24933846 </v>
   <v>       0.24944597       0.50179734       0.00253451 </v>
   <v>       0.00018654       0.75031790       0.00423719 </v>
   <v>       0.75601750       0.73870617       0.25656889 </v>
   <v>       0.75112245       0.50320253       0.00198541 </v>
   <v>       0.50068130       0.50400682       0.25141478 </v>
   <v>       0.25471229       0.25215797       0.74927028 </v>
   <v>       0.24228051      -0.00161671       0.49496760 </v>
   <v>      -0.00315798       0.24802908       0.50013252 </v>
   <v>       0.25085914       0.75257593       0.74944498 </v>
   <v>       0.25304424       0.50025641       0.49476860 </v>
   <v>      -0.00979782       0.75427776       0.49612706 </v>
   <v>      -0.00597081       0.50099111       0.74702767 </v>
   <v>       0.74448341       0.74748790       0.74610006 </v>
   <v>       0.74957999       0.50425818       0.49996535 </v>
   <v>       0.50707983       0.74746549       0.50337438 </v>
   <v>       0.50560589       0.50085561       0.74578099 </v>
   <v>       0.51421303       0.01581015      -0.01531484 </v>
   <v>       0.00036150       0.51314765      -0.00888487 </v>
   <v>       0.50326814       0.73928108       0.26274015 </v>
   <v>       0.24351611       0.00567665       0.74176554 </v>
   <v>       0.47940929      -0.01473828       0.50087685 </v>
   <v>       0.74017009      -0.02032292       0.76494267 </v>
   <v>       0.00103423       0.76740769       0.25607645 </v>
   <v>       0.73335271       0.51040309       0.26098535 </v>
   <v>       0.01828721      -0.00334772       0.48849918 </v>
   <v>       0.50696257       0.51840906       0.50100863 </v>
   <v>       0.73991287       0.52240909       0.74361189 </v>
   <v>       0.75361039       0.72727513       0.49215313 </v>
  </varray>
 </structure>
</modeling>
