HECN                                    
           1
    11.240000    0.000000    0.000000
     0.000000   11.240000    0.000000
     0.000000    0.000000   11.240000
   Ti   Ta   Hf   N    C    W    V 
   7   6   7  13  19   6   6
Direct configuration=     1
   0.00000000  0.00000000  0.00000000
   0.25000000  0.00000000  0.25000000
   0.25000000  0.50000000  0.25000000
   0.50000000  0.50000000  0.00000000
   0.50000000  0.25000000  0.75000004
   0.00000000  0.50000000  0.50000000
   0.50000000  0.75000004  0.75000004
   0.00000000  0.25000000  0.25000000
   0.75000004  0.75000004  0.00000000
   0.00000000  0.25000000  0.75000004
   0.75000004  0.25000000  0.50000000
   0.00000000  0.75000004  0.75000004
   0.25000000  0.50000000  0.75000004
   0.25000000  0.25000000  0.00000000
   0.50000000  0.25000000  0.25000000
   0.75000004  0.00000000  0.25000000
   0.75000004  0.25000000  0.00000000
   0.25000000  0.75000004  0.00000000
   0.25000000  0.25000000  0.50000000
   0.25000000  0.75000004  0.50000000
   0.25000000  0.25000000  0.25000000
   0.25000000  0.00000000  0.00000000
   0.00000000  0.25000000  0.00000000
   0.75000004  0.25000000  0.25000000
   0.75000004  0.00000000  0.00000000
   0.50000000  0.00000000  0.25000000
   0.00000000  0.50000000  0.25000000
   0.50000000  0.75000004  0.00000000
   0.00000000  0.00000000  0.75000004
   0.75000004  0.25000000  0.75000004
   0.75000004  0.00000000  0.50000000
   0.50000000  0.25000000  0.50000000
   0.50000000  0.00000000  0.75000004
   0.00000000  0.00000000  0.25000000
   0.50000000  0.25000000  0.00000000
   0.25000000  0.75000004  0.25000000
   0.25000000  0.50000000  0.00000000
   0.00000000  0.75000004  0.00000000
   0.75000004  0.75000004  0.25000000
   0.75000004  0.50000000  0.00000000
   0.50000000  0.50000000  0.25000000
   0.25000000  0.25000000  0.75000004
   0.25000000  0.00000000  0.50000000
   0.00000000  0.25000000  0.50000000
   0.25000000  0.75000004  0.75000004
   0.25000000  0.50000000  0.50000000
   0.00000000  0.75000004  0.50000000
   0.00000000  0.50000000  0.75000004
   0.75000004  0.75000004  0.75000004
   0.75000004  0.50000000  0.50000000
   0.50000000  0.75000004  0.50000000
   0.50000000  0.50000000  0.75000004
   0.50000000  0.00000000  0.00000000
   0.00000000  0.50000000  0.00000000
   0.50000000  0.75000004  0.25000000
   0.25000000  0.00000000  0.75000004
   0.50000000  0.00000000  0.50000000
   0.75000004  0.00000000  0.75000004
   0.00000000  0.75000004  0.25000000
   0.75000004  0.50000000  0.25000000
   0.00000000  0.00000000  0.50000000
   0.50000000  0.50000000  0.50000000
   0.75000004  0.50000000  0.75000004
   0.75000004  0.75000004  0.50000000
HECN                                    
           1
     8.057007   -0.001640    0.001248
    -0.001640    8.031329    0.002310
     0.001248    0.002310    8.054978
   Ti   Ta   Hf   N    C    W    V 
   7   6   7  13  19   6   6
Direct configuration=     2
   0.00000620 -0.00191565  0.00071969
   0.24914264 -0.00221235  0.25158511
   0.25088138  0.50219737  0.25003818
   0.50034921  0.49911019 -0.00005747
   0.49903163  0.25027490  0.75076004
  -0.00047239  0.50057468  0.50099680
   0.50039888  0.74951333  0.74852771
  -0.00060406  0.24829579  0.25276924
   0.75175815  0.74776416 -0.00006124
   0.00131357  0.25165186  0.74716627
   0.75245975  0.25203315  0.50135916
  -0.00063774  0.74850377  0.74932882
   0.25057329  0.50017686  0.74996101
   0.25090608  0.25071714 -0.00203543
   0.50029032  0.25136162  0.24937583
   0.75058668 -0.00240124  0.25069716
   0.74891541  0.25152663 -0.00122989
   0.24925157  0.74940463  0.00014899
   0.24880098  0.24954230  0.50196849
   0.25007781  0.75046085  0.49987815
   0.25027686  0.24997155  0.24965845
   0.25130724  0.00013279 -0.00094063
   0.00010493  0.25064593  0.00010044
   0.74960703  0.24707933  0.24969987
   0.74868831  0.00037517  0.00086446
   0.50232398  0.00144525  0.24997821
   0.00043316  0.49655837  0.24847423
   0.49996639  0.75134984  0.00084999
  -0.00032927  0.00029111  0.75068330
   0.75172306  0.24802026  0.75016064
   0.74813460  0.00300582  0.49929755
   0.50012239  0.24816861  0.49779181
   0.50025992  0.00015875  0.75000670
  -0.00199083  0.00348975  0.24946501
   0.50017395  0.24754180  0.00194569
   0.25244695  0.75005711  0.24962372
   0.24806143  0.49985920 -0.00174802
  -0.00094458  0.74835041 -0.00260255
   0.74761972  0.75216674  0.24724030
   0.75202250  0.50069329  0.00024685
   0.49992525  0.50043272  0.24983223
   0.24780239  0.25026747  0.75035374
   0.25258523  0.00033659  0.50216102
  -0.00101123  0.25019120  0.50000250
   0.24796970  0.74962179  0.75039279
   0.24963857  0.49962941  0.50194505
   0.00153460  0.74969829  0.50310530
   0.00206693  0.49977997  0.75212309
   0.75223955  0.75272770  0.75266541
   0.75022110  0.49677111  0.49979667
   0.49861484  0.75276047  0.49779391
   0.49745281  0.49997229  0.75012872
   0.50045712  0.00191455 -0.00057540
  -0.00059896  0.50240085 -0.00209367
   0.50020404  0.74762473  0.25255439
   0.25032070 -0.00013507  0.74749206
   0.49793262 -0.00281614  0.50058087
   0.74949022 -0.00261735  0.74965586
  -0.00016808  0.75146971  0.25018301
   0.74868549  0.50242477  0.25020989
   0.00139486 -0.00031287  0.49903098
   0.50057621  0.50176502  0.50017599
   0.74968013  0.50180046  0.74984889
   0.74994948  0.74835193  0.49994472
HECN                                    
           1
     8.901858   -0.001204    0.000916
    -0.001204    8.882996    0.001697
     0.000916    0.001697    8.900367
   Ti   Ta   Hf   N    C    W    V 
   7   6   7  13  19   6   6
Direct configuration=     3
   0.00000409 -0.00120397  0.00045293
   0.24946036 -0.00139029  0.25099773
   0.25055485  0.50138105  0.25002433
   0.50021997  0.49944069 -0.00003626
   0.49939023  0.25017294  0.75047853
  -0.00029745  0.50036135  0.50062764
   0.50025113  0.74969394  0.74907300
  -0.00038010  0.24892919  0.25174335
   0.75110731  0.74859458 -0.00003870
   0.00082689  0.25103784  0.74821609
   0.75154888  0.25127786  0.50085612
  -0.00040152  0.74905957  0.74957723
   0.25036099  0.50011112  0.74997552
   0.25057040  0.25045046 -0.00128142
   0.50018268  0.25085573  0.24960717
   0.75036968 -0.00150922  0.25043872
   0.74931685  0.25095948 -0.00077426
   0.24952876  0.74962588  0.00009370
   0.24924511  0.24971262  0.50123929
   0.25004895  0.75028965  0.49992334
   0.25017433  0.24998206  0.24978496
   0.25082312  0.00008326 -0.00059215
   0.00006603  0.25040599  0.00006331
   0.74975276  0.24816427  0.24981070
   0.74917405  0.00023600  0.00054424
   0.50146333  0.00090821  0.24998657
   0.00027294  0.49783664  0.24903900
   0.49997878  0.75084852  0.00053532
  -0.00020733  0.00018307  0.75043024
   0.75108521  0.24875556  0.75010105
   0.74882508  0.00188931  0.49955794
   0.50007708  0.24884867  0.49860949
   0.50016366  0.00009976  0.75000426
  -0.00125395  0.00219351  0.24966342
   0.50010984  0.24845514  0.00122479
   0.25154085  0.75003569  0.24976323
   0.24877916  0.49991146 -0.00110072
  -0.00059484  0.74896299 -0.00163885
   0.74850080  0.75136176  0.24826253
   0.75127357  0.50043563  0.00015561
   0.49995289  0.50027196  0.24989441
   0.24861613  0.25016832  0.75022264
   0.25162806  0.00021159  0.50136081
  -0.00063680  0.25012025  0.50000154
   0.24872154  0.74976249  0.75024717
   0.24977254  0.49976731  0.50122458
   0.00096656  0.74981060  0.50195522
   0.00130171  0.49986177  0.75133685
   0.75141024  0.75171457  0.75167863
   0.75013948  0.49797051  0.49987165
   0.49912741  0.75173492  0.49861121
   0.49839601  0.49998279  0.75008091
   0.50028768  0.00120326 -0.00036205
  -0.00037748  0.50150883 -0.00131800
   0.50012881  0.74850734  0.25160806
   0.25020182 -0.00008519  0.74842097
   0.49869839 -0.00176981  0.50036531
   0.74967918 -0.00164508  0.74978303
  -0.00010594  0.75092380  0.25011537
   0.74917208  0.50152416  0.25013233
   0.00087833 -0.00019686  0.49938993
   0.50036273  0.50110934  0.50011103
   0.74979845  0.50113165  0.74990505
   0.74996832  0.74896415  0.49996502
HECN                                    
           1
     8.833396   -0.001240    0.000943
    -0.001240    8.813981    0.001747
     0.000943    0.001747    8.831861
   Ti   Ta   Hf   N    C    W    V 
   7   6   7  13  19   6   6
Direct configuration=     4
   0.00000425 -0.00125610  0.00047249
   0.24943707 -0.00145052  0.25104080
   0.25057880  0.50144086  0.25002535
   0.50022945  0.49941648 -0.00003782
   0.49936393  0.25018041  0.75049917
  -0.00031028  0.50037698  0.50065471
   0.50026197  0.74968071  0.74903301
  -0.00039652  0.24888280  0.25181858
   0.75115505  0.74853374 -0.00004035
   0.00086257  0.25108282  0.74813911
   0.75161568  0.25133319  0.50089302
  -0.00041884  0.74901885  0.74955901
   0.25037656  0.50011593  0.74997445
   0.25059502  0.25046999 -0.00133672
   0.50019057  0.25089279  0.24959021
   0.75038560 -0.00157457  0.25045767
   0.74928740  0.25100104 -0.00080767
   0.24950843  0.74960967  0.00009775
   0.24921254  0.24970015  0.50129276
   0.25005107  0.75030220  0.49992002
   0.25018185  0.24998129  0.24977568
   0.25085863  0.00008689 -0.00061771
   0.00006889  0.25042357  0.00006604
   0.74974207  0.24808478  0.24980256
   0.74913842  0.00024620  0.00056773
   0.50152645  0.00094755  0.24998596
   0.00028469  0.49774298  0.24899757
   0.49997787  0.75088526  0.00055840
  -0.00021627  0.00019099  0.75044880
   0.75113200  0.24870169  0.75010541
   0.74877443  0.00197112  0.49953884
   0.50008041  0.24879884  0.49854952
   0.50017072  0.00010408  0.75000444
  -0.00130800  0.00228848  0.24964887
   0.50011455  0.24838823  0.00127766
   0.25160731  0.75003725  0.24975300
   0.24872652  0.49990763 -0.00114819
  -0.00062049  0.74891811 -0.00170953
   0.74843617  0.75142073  0.24818757
   0.75132850  0.50045450  0.00016231
   0.49995086  0.50028374  0.24988985
   0.24855645  0.25017559  0.75023225
   0.25169826  0.00022075  0.50141950
  -0.00066426  0.25012545  0.50000161
   0.24866640  0.74975219  0.75025785
   0.24976272  0.49975721  0.50127742
   0.00100823  0.74980237  0.50203956
   0.00135784  0.49985578  0.75139452
   0.75147107  0.75178880  0.75175101
   0.75014547  0.49788263  0.49986614
   0.49908980  0.75181006  0.49855128
   0.49832683  0.49998202  0.75008442
   0.50030010  0.00125537 -0.00037770
  -0.00039373  0.50157418 -0.00137488
   0.50013434  0.74844268  0.25167745
   0.25021053 -0.00008885  0.74835284
   0.49864223 -0.00184646  0.50038111
   0.74966532 -0.00171632  0.74977370
  -0.00011050  0.75096380  0.25012034
   0.74913639  0.50159015  0.25013803
   0.00091621 -0.00020536  0.49936361
   0.50037838  0.50115738  0.50011580
   0.74978976  0.50118065  0.74990094
   0.74996694  0.74891929  0.49996353
HECN                                    
           1
     8.803916   -0.001255    0.000955
    -0.001255    8.784263    0.001768
     0.000955    0.001768    8.802362
   Ti   Ta   Hf   N    C    W    V 
   7   6   7  13  19   6   6
Direct configuration=     5
   0.00000432 -0.00127873  0.00048097
   0.24942696 -0.00147665  0.25105949
   0.25058919  0.50146681  0.25002579
   0.50023356  0.49940597 -0.00003849
   0.49935251  0.25018365  0.75050813
  -0.00031585  0.50038376  0.50066646
   0.50026667  0.74967496  0.74901566
  -0.00040364  0.24886266  0.25185123
   0.75117577  0.74850733 -0.00004107
   0.00087806  0.25110234  0.74810570
   0.75164467  0.25135721  0.50090903
  -0.00042636  0.74900118  0.74955110
   0.25038332  0.50011802  0.74997399
   0.25060570  0.25047847 -0.00136071
   0.50019400  0.25090888  0.24958285
   0.75039251 -0.00160294  0.25046589
   0.74927462  0.25101907 -0.00082217
   0.24949961  0.74960264  0.00009951
   0.24919840  0.24969474  0.50131597
   0.25005199  0.75030764  0.49991859
   0.25018511  0.24998096  0.24977166
   0.25087404  0.00008846 -0.00062880
   0.00007012  0.25043120  0.00006722
   0.74973744  0.24805028  0.24979903
   0.74912296  0.00025063  0.00057792
   0.50155384  0.00096462  0.24998570
   0.00028980  0.49770233  0.24897960
   0.49997748  0.75090120  0.00056841
  -0.00022015  0.00019443  0.75045686
   0.75115230  0.24867831  0.75010731
   0.74875245  0.00200662  0.49953056
   0.50008185  0.24877721  0.49852349
   0.50017379  0.00010596  0.75000452
  -0.00133146  0.00232969  0.24964256
   0.50011659  0.24835919  0.00130060
   0.25163615  0.75003793  0.24974857
   0.24870368  0.49990597 -0.00116880
  -0.00063162  0.74889863 -0.00174020
   0.74840812  0.75144633  0.24815503
   0.75135234  0.50046269  0.00016521
   0.49994998  0.50028885  0.24988787
   0.24853055  0.25017874  0.75023643
   0.25172873  0.00022473  0.50144497
  -0.00067618  0.25012771  0.50000164
   0.24864247  0.74974772  0.75026248
   0.24975845  0.49975283  0.50130034
   0.00102631  0.74979881  0.50207616
   0.00138220  0.49985318  0.75141954
   0.75149746  0.75182102  0.75178242
   0.75014807  0.49784449  0.49986375
   0.49907349  0.75184266  0.49852527
   0.49829681  0.49998169  0.75008594
   0.50030549  0.00127798 -0.00038448
  -0.00040078  0.50160254 -0.00139956
   0.50013674  0.74841462  0.25170757
   0.25021432 -0.00009044  0.74832328
   0.49861786 -0.00187973  0.50038797
   0.74965931 -0.00174723  0.74976965
  -0.00011248  0.75098116  0.25012249
   0.74912090  0.50161878  0.25014050
   0.00093265 -0.00020905  0.49935219
   0.50038518  0.50117823  0.50011787
   0.74978600  0.50120192  0.74989915
   0.74996634  0.74889983  0.49996288
HECN                                    
           1
     8.752323    0.008917   -0.005298
     0.008906    8.828613    0.005752
    -0.005294    0.005781    8.748648
   Ti   Ta   Hf   N    C    W    V 
   7   6   7  13  19   6   6
Direct configuration=     6
   0.00036051 -0.00553306  0.00353432
   0.24768196 -0.00445709  0.25298772
   0.25261819  0.50525152  0.25054399
   0.50187057  0.49653343 -0.00110642
   0.49909342  0.25094269  0.75053486
  -0.00263614  0.50252312  0.50126100
   0.50257727  0.74754182  0.74562968
  -0.00064320  0.24615362  0.25669110
   0.75268130  0.74441570  0.00015149
  -0.00027955  0.25242109  0.74417433
   0.75397649  0.25725586  0.50419573
  -0.00378689  0.74767126  0.74697012
   0.25482573  0.49965379  0.74933376
   0.24982407  0.24689352 -0.00060550
   0.49941940  0.25513376  0.25088505
   0.75295721 -0.00640033  0.25285787
   0.74951675  0.25256307 -0.00418131
   0.25023006  0.75215328  0.00215267
   0.24975626  0.24913673  0.50045184
   0.24919544  0.75063285  0.49781516
   0.24860353  0.25029881  0.24927733
   0.24954310 -0.00038608  0.00171319
   0.00064870  0.24795551  0.00046415
   0.75084083  0.25135451  0.25109947
   0.75119734 -0.00129486 -0.00112166
   0.49774493 -0.00011537  0.25009028
  -0.00050843  0.49900677  0.25068745
   0.50149547  0.74856867 -0.00217124
  -0.00066012  0.00016474  0.74984475
   0.74793248  0.25147008  0.74852424
   0.75106845 -0.00072186  0.50185931
   0.50247579  0.25122689  0.50269646
   0.50036783  0.00006998  0.74966294
   0.00360056 -0.00069507  0.25073869
   0.50022678  0.24999830 -0.00391741
   0.24994991  0.74966560  0.24976233
   0.24931681  0.50073697  0.00298579
  -0.00311612  0.75109487  0.00186080
   0.75103334  0.74386837  0.25244829
   0.75018111  0.50392412  0.00075741
   0.50144195  0.50556026  0.25159966
   0.25188801  0.24948991  0.75046143
   0.25000871 -0.00018144  0.50053346
  -0.00332222  0.24930995  0.49995509
   0.25165707  0.75082910  0.75043311
   0.25076036  0.49994260  0.49748008
  -0.00667111  0.75102830  0.49887529
  -0.00356928  0.49992846  0.74947913
   0.74806814  0.74910470  0.74726725
   0.74874588  0.50230530  0.49945924
   0.50647898  0.74904665  0.50029066
   0.50300204  0.50033852  0.74798174
   0.50055526  0.00667618 -0.00129374
  -0.00291886  0.50609459 -0.00388223
   0.50030530  0.74188196  0.25703481
   0.24967416  0.00037920  0.74518230
   0.49406273 -0.00738526  0.50125428
   0.74914040 -0.00704219  0.74880036
  -0.00055931  0.75492647  0.25093585
   0.74518576  0.50723468  0.25122451
   0.00416447 -0.00063864  0.49572633
   0.50309232  0.50533173  0.50112294
   0.74696414  0.50544178  0.74948300
   0.75066465  0.74372029  0.49905612
HECN                                    
           1
     8.727384    0.013834   -0.008321
     0.013818    8.850051    0.007678
    -0.008315    0.007720    8.722683
   Ti   Ta   Hf   N    C    W    V 
   7   6   7  13  19   6   6
Direct configuration=     7
   0.00053714 -0.00758010  0.00502038
   0.24683581 -0.00589002  0.25392557
   0.25360283  0.50707056  0.25079589
   0.50266778  0.49515117 -0.00162461
   0.49896702  0.25130789  0.75054761
  -0.00376534  0.50355323  0.50154889
   0.50370080  0.74651532  0.74398416
  -0.00075649  0.24484974  0.25904552
   0.75341570  0.74244690  0.00024656
  -0.00084452  0.25305688  0.74226159
   0.75510815  0.26009084  0.50579376
  -0.00542106  0.74703408  0.74571397
   0.25698584  0.49942817  0.74902402
   0.24944627  0.24516957 -0.00023768
   0.49904085  0.25716590  0.25151719
   0.75420778 -0.00870965  0.25402317
   0.74963246  0.25330629 -0.00581529
   0.25058452  0.75337917  0.00315093
   0.25002753  0.24886824  0.50003188
   0.24877804  0.75079021  0.49679178
   0.24783415  0.25045268  0.24903628
   0.24889702 -0.00061410  0.00285187
   0.00093155  0.24676440  0.00065794
   0.75137594  0.25294281  0.25173161
   0.75220626 -0.00203896 -0.00194721
   0.49589354 -0.00063269  0.25014006
  -0.00089670  0.49963422  0.25151751
   0.50223393  0.74744658 -0.00350265
  -0.00087424  0.00015085  0.74954690
   0.74636477  0.25281497  0.74775257
   0.75219691 -0.00203596  0.50299331
   0.50363990  0.25240281  0.50472631
   0.50046208  0.00005264  0.74949688
   0.00600077 -0.00215287  0.25127418
   0.50027763  0.25078774 -0.00645554
   0.24913021  0.74948746  0.24976851
   0.24961592  0.50113538  0.00500642
  -0.00432415  0.75215177  0.00361083
   0.75231554  0.74022125  0.25453891
   0.74960988  0.50558946  0.00104426
   0.50216504  0.50809438  0.25243156
   0.25352100  0.24915667  0.75057217
   0.24917228 -0.00037562  0.50008963
  -0.00460839  0.24891814  0.49993172
   0.25312234  0.75134748  0.75051692
   0.25124610  0.50003416  0.49562237
  -0.01041569  0.75162466  0.49731558
  -0.00597759  0.49996787  0.74853367
   0.74640062  0.74780118  0.74507067
   0.74806145  0.50445165  0.49926103
   0.51008198  0.74769735  0.50115246
   0.50528897  0.50050797  0.74695991
   0.50067338  0.00927256 -0.00173706
  -0.00414662  0.50825705 -0.00509155
   0.50039277  0.73873873  0.25962723
   0.24941016  0.00060608  0.74365437
   0.49185123 -0.01003084  0.50167523
   0.74889070 -0.00958835  0.74832992
  -0.00077850  0.75682409  0.25133041
   0.74326959  0.50993767  0.25174913
   0.00573488 -0.00084625  0.49396409
   0.50440666  0.50732766  0.50161180
   0.74558953  0.50748265  0.74927869
   0.75100677  0.74122895  0.49861648
HECN                                    
           1
     8.816236    0.005667   -0.005003
     0.005639    8.874399    0.005746
    -0.004988    0.005749    8.827216
   Ti   Ta   Hf   N    C    W    V 
   7   6   7  13  19   6   6
Direct configuration=     8
   0.00019148 -0.01266568  0.00805301
   0.24536859 -0.00746923  0.25614580
   0.25422504  0.50915896  0.25103606
   0.50348691  0.49158362 -0.00319379
   0.49745134  0.25151755  0.75045001
  -0.00551741  0.50499641  0.50120125
   0.50520564  0.74471665  0.74109634
  -0.00198919  0.24257777  0.26039293
   0.75109102  0.74221475  0.00199204
   0.00100166  0.25409139  0.74131255
   0.75196399  0.26623488  0.50604170
  -0.00641255  0.74605200  0.74558990
   0.25859158  0.49904023  0.74887687
   0.24759313  0.24496248 -0.00010235
   0.50126560  0.25982203  0.25155998
   0.75317438 -0.01184401  0.25616761
   0.75191108  0.25422931 -0.00655876
   0.25223894  0.75334470  0.00084426
   0.25036186  0.24950078  0.50021377
   0.24729629  0.74999818  0.49974178
   0.24757325  0.25085019  0.24924972
   0.24811146 -0.00097214  0.00495820
  -0.00002873  0.24564668  0.00123450
   0.75217055  0.25280429  0.25242277
   0.75345949 -0.00230616 -0.00153625
   0.49520969 -0.00078213  0.24949138
  -0.00187334  0.49840677  0.25138237
   0.50402422  0.74893434 -0.00396770
  -0.00123908  0.00074193  0.74919269
   0.74480131  0.25328265  0.74742519
   0.75267948 -0.00167954  0.50468201
   0.50580070  0.25185152  0.50598835
   0.50024089 -0.00024079  0.74911823
   0.00712126 -0.00401517  0.25228478
   0.50071854  0.25331449 -0.00649385
   0.24865150  0.74920603  0.25017092
   0.24894714  0.50129559  0.00573924
  -0.00277693  0.75291404  0.00449841
   0.75426411  0.73732919  0.25606940
   0.74850849  0.50333308  0.00172468
   0.50280984  0.50658166  0.25308112
   0.25494375  0.24989841  0.75015632
   0.24623394 -0.00121672  0.49785565
  -0.00245465  0.24839309  0.50019647
   0.25378698  0.75148658  0.74974582
   0.25212145  0.50043646  0.49457479
  -0.01292439  0.75322605  0.49467957
  -0.00719594  0.50007554  0.74740455
   0.74462369  0.74587387  0.74288204
   0.74787305  0.50674322  0.49880990
   0.51132150  0.74607849  0.50299467
   0.50768961  0.50065744  0.74565262
   0.50192504  0.01495323 -0.00326170
  -0.00423284  0.51262635 -0.00682996
   0.50266746  0.73600096  0.26353484
   0.24740377  0.00143821  0.74211265
   0.48875815 -0.01492001  0.50134876
   0.74933944 -0.01537037  0.74754811
  -0.00060067  0.76187152  0.25280574
   0.73886453  0.51476188  0.25340027
   0.01061204 -0.00175618  0.49008269
   0.50784314  0.51371051  0.50193615
   0.74163625  0.51408999  0.74856924
   0.75209214  0.73238288  0.49622439
HECN                                    
           1
     8.798458    0.007301   -0.005667
     0.007276    8.869527    0.006133
    -0.005654    0.006143    8.806301
   Ti   Ta   Hf   N    C    W    V 
   7   6   7  13  19   6   6
Direct configuration=     9
   0.00026112 -0.01165101  0.00745362
   0.24565966 -0.00715396  0.25570679
   0.25410143  0.50874212  0.25098853
   0.50332521  0.49229538 -0.00288332
   0.49775150  0.25147600  0.75046918
  -0.00517068  0.50470879  0.50126979
   0.50490770  0.74507539  0.74166749
  -0.00174451  0.24303127  0.26012654
   0.75155164  0.74226142  0.00164677
   0.00063573  0.25388468  0.74150028
   0.75258562  0.26500951  0.50599217
  -0.00621600  0.74624815  0.74561440
   0.25827360  0.49911734  0.74890610
   0.24796022  0.24500414 -0.00012924
   0.50082447  0.25929163  0.25155157
   0.75337981 -0.01121851  0.25574368
   0.75145954  0.25404475 -0.00641164
   0.25191108  0.75335138  0.00130044
   0.25029554  0.24937449  0.50017781
   0.24759015  0.75015635  0.49915845
   0.24762487  0.25077092  0.24920749
   0.24826728 -0.00090065  0.00454170
   0.00016172  0.24586985  0.00112048
   0.75201325  0.25283175  0.25228618
   0.75321135 -0.00225310 -0.00161739
   0.49534512 -0.00075215  0.24961959
  -0.00167968  0.49865187  0.25140907
   0.50366932  0.74863717 -0.00387569
  -0.00116695  0.00062407  0.74926267
   0.74511087  0.25318964  0.74748977
   0.75258396 -0.00175082  0.50434815
   0.50537292  0.25196107  0.50573902
   0.50028472 -0.00018218  0.74919309
   0.00689975 -0.00364384  0.25208514
   0.50063074  0.25281024 -0.00648636
   0.24874640  0.74926225  0.25009133
   0.24907963  0.50126371  0.00559430
  -0.00308346  0.75276162  0.00432301
   0.75387882  0.73790582  0.25576708
   0.74872711  0.50378347  0.00159016
   0.50268246  0.50688335  0.25295281
   0.25466178  0.24975017  0.75023861
   0.24681591 -0.00104825  0.49829715
  -0.00288112  0.24849744  0.50014432
   0.25365526  0.75145873  0.74989832
   0.25194791  0.50035607  0.49478196
  -0.01242800  0.75290711  0.49520048
  -0.00695474  0.50005434  0.74762769
   0.74497583  0.74625886  0.74331471
   0.74790991  0.50628603  0.49889898
   0.51107644  0.74640119  0.50263061
   0.50721400  0.50062723  0.74591126
   0.50167596  0.01381958 -0.00296042
  -0.00421671  0.51175463 -0.00648646
   0.50221773  0.73654663  0.26276255
   0.24780089  0.00127262  0.74241728
   0.48937167 -0.01394387  0.50141329
   0.74925158 -0.01421672  0.74770298
  -0.00063672  0.76086429  0.25251384
   0.73973625  0.51380003  0.25307327
   0.00964591 -0.00157534  0.49085050
   0.50716133  0.51243627  0.50187200
   0.74241797  0.51277238  0.74870891
   0.75187862  0.73414787  0.49669781
HECN                                    
           1
     8.766736   -0.008324    0.002038
    -0.008464    8.826781    0.001846
     0.002053    0.001880    8.779090
   Ti   Ta   Hf   N    C    W    V 
   7   6   7  13  19   6   6
Direct configuration=    10
  -0.00072894 -0.01589161  0.01002704
   0.24523210 -0.00806749  0.25732601
   0.25390304  0.50946949  0.25116193
   0.50323519  0.48928034 -0.00450802
   0.49537873  0.25128292  0.75102957
  -0.00610778  0.50539513  0.50043328
   0.50526205  0.74413921  0.73987800
  -0.00260813  0.24183268  0.26038524
   0.74923235  0.74381639  0.00369879
   0.00399958  0.25511508  0.74122639
   0.75022911  0.27053323  0.50536507
  -0.00664775  0.74545534  0.74612385
   0.25849238  0.49835782  0.74869581
   0.24608031  0.24657773  0.00022992
   0.50312769  0.25932469  0.25110254
   0.75103736 -0.01228170  0.25790620
   0.75380667  0.25358278 -0.00624132
   0.25467841  0.75229118 -0.00098503
   0.25158432  0.25048268  0.50011350
   0.24581346  0.74890124  0.50155376
   0.24813124  0.25103719  0.24959972
   0.24879439 -0.00072759  0.00568698
  -0.00092289  0.24542131  0.00146403
   0.75243040  0.25095126  0.25281007
   0.75322779 -0.00201461 -0.00037192
   0.49636442 -0.00091024  0.24882369
  -0.00232305  0.49610835  0.24985870
   0.50523193  0.75198849 -0.00286167
  -0.00212243  0.00145719  0.74920348
   0.74563291  0.25166370  0.74734303
   0.75124854  0.00037170  0.50597423
   0.50672796  0.24962299  0.50468351
   0.50035011 -0.00063355  0.74855710
   0.00480166 -0.00420383  0.25263751
   0.50098893  0.25524465 -0.00396414
   0.24987782  0.74913946  0.25056238
   0.24766007  0.50118729  0.00424154
  -0.00121784  0.75207832  0.00356007
   0.75483514  0.73858805  0.25496376
   0.74881002  0.50108302  0.00210556
   0.50231362  0.50368569  0.25283831
   0.25438290  0.25092285  0.74996217
   0.24487115 -0.00169841  0.49688454
  -0.00183199  0.24821965  0.50053575
   0.25284022  0.75124349  0.74953704
   0.25251831  0.50063965  0.49562165
  -0.01126912  0.75427243  0.49467962
  -0.00620203  0.50016835  0.74773579
   0.74522625  0.74557987  0.74339987
   0.74897709  0.50641463  0.49856246
   0.50910963  0.74611279  0.50348620
   0.50688257  0.50065790  0.74548432
   0.50377592  0.01826625 -0.00494842
  -0.00315823  0.51494459 -0.00813429
   0.50410849  0.73753886  0.26534582
   0.24531188  0.00307726  0.74121748
   0.48645261 -0.01730884  0.50053191
   0.74954512 -0.02112060  0.74813935
   0.00024209  0.76516657  0.25439177
   0.73571161  0.51530544  0.25480211
   0.01450641 -0.00302961  0.48723704
   0.50990545  0.51812117  0.50186979
   0.73921108  0.52049826  0.74777788
   0.75304238  0.72527219  0.49364237
HECN                                    
           1
     8.773869   -0.004811    0.000305
    -0.004924    8.836394    0.002810
     0.000320    0.002839    8.785209
   Ti   Ta   Hf   N    C    W    V 
   7   6   7  13  19   6   6
Direct configuration=    11
  -0.00050326 -0.01493327  0.00944681
   0.24532928 -0.00786107  0.25696077
   0.25394756  0.50930519  0.25112270
   0.50325641  0.48996185 -0.00414122
   0.49591443  0.25132744  0.75090271
  -0.00589673  0.50524050  0.50062171
   0.50518210  0.74435081  0.74028184
  -0.00241268  0.24210384  0.26032684
   0.74975556  0.74346573  0.00323528
   0.00323984  0.25483574  0.74128871
   0.75075859  0.26928607  0.50550546
  -0.00654989  0.74563460  0.74600893
   0.25844327  0.49852938  0.74874337
   0.24650402  0.24622286  0.00014836
   0.50260777  0.25931635  0.25120428
   0.75156689 -0.01204075  0.25741805
   0.75327717  0.25368621 -0.00627923
   0.25405383  0.75252989 -0.00046883
   0.25129300  0.25023176  0.50012814
   0.24621543  0.74918530  0.50101323
   0.24801693  0.25097677  0.24951131
   0.24867558 -0.00076703  0.00542872
  -0.00067786  0.24552306  0.00138637
   0.75233712  0.25137596  0.25269218
   0.75322423 -0.00206865 -0.00065289
   0.49613428 -0.00087484  0.24900344
  -0.00217712  0.49668352  0.25020857
   0.50487810  0.75123048 -0.00309046
  -0.00190714  0.00126932  0.74921655
   0.74551568  0.25200831  0.74737640
   0.75154940 -0.00010756  0.50560694
   0.50642288  0.25015088  0.50492212
   0.50033541 -0.00053151  0.74870062
   0.00527552 -0.00407651  0.25251256
   0.50090760  0.25469414 -0.00453328
   0.24962261  0.74916670  0.25045636
   0.24798021  0.50120527  0.00454641
  -0.00163876  0.75223206  0.00373261
   0.75461888  0.73843360  0.25514508
   0.74879250  0.50169314  0.00198962
   0.50239813  0.50440841  0.25286441
   0.25444531  0.25065800  0.75002435
   0.24531005 -0.00155056  0.49720288
  -0.00206858  0.24828196  0.50044769
   0.25302418  0.75129249  0.74961840
   0.25238963  0.50057525  0.49543232
  -0.01153133  0.75396351  0.49479719
  -0.00637193  0.50014227  0.74771154
   0.74517002  0.74573319  0.74338078
   0.74873612  0.50638518  0.49863857
   0.50955381  0.74617865  0.50329284
   0.50695727  0.50065115  0.74558056
   0.50329979  0.01726083 -0.00450005
  -0.00339874  0.51422353 -0.00776272
   0.50368187  0.73731361  0.26476337
   0.24587266  0.00267060  0.74148743
   0.48711260 -0.01654722  0.50073051
   0.74948175 -0.01956072  0.74804173
   0.00004238  0.76419385  0.25396786
   0.73661966  0.51496669  0.25441117
   0.01340931 -0.00270254  0.48805326
   0.50928383  0.51683549  0.50187021
   0.73993153  0.51875386  0.74798642
   0.75278272  0.72727765  0.49433280
HECN                                    
           1
     8.767541   -0.009392    0.002928
    -0.009501    8.895342   -0.000817
     0.002943   -0.000740    8.764088
   Ti   Ta   Hf   N    C    W    V 
   7   6   7  13  19   6   6
Direct configuration=    12
  -0.00128779 -0.01558266  0.00992462
   0.24610741 -0.00776254  0.25649132
   0.25347523  0.50857323  0.25133977