 running   28 mpi-ranks, on    1 nodes
 distrk:  each k-point on   28 cores,    1 groups
 distr:  one band on    1 cores,   28 groups
 vasp.6.4.3 19Mar24 (build Sep 18 2024 11:30:23) complex                        
  
 POSCAR found type information on POSCAR TiMoV N C NbTa
 POSCAR found :  7 types and      64 ions
 Reading from existing POTCAR
 scaLAPACK will be used
 -----------------------------------------------------------------------------
|                                                                             |
|           W    W    AA    RRRRR   N    N  II  N    N   GGGG   !!!           |
|           W    W   A  A   R    R  NN   N  II  NN   N  G    G  !!!           |
|           W    W  A    A  R    R  N N  N  II  N N  N  G       !!!           |
|           W WW W  AAAAAA  RRRRR   N  N N  II  N  N N  G  GGG   !            |
|           WW  WW  A    A  R   R   N   NN  II  N   NN  G    G                |
|           W    W  A    A  R    R  N    N  II  N    N   GGGG   !!!           |
|                                                                             |
|     For optimal performance we recommend to set                             |
|       NCORE = 2 up to number-of-cores-per-socket                            |
|     NCORE specifies how many cores store one orbital (NPAR=cpu/NCORE).      |
|     This setting can greatly improve the performance of VASP for DFT.       |
|     The default, NCORE=1 might be grossly inefficient on modern             |
|     multi-core architectures or massively parallel machines. Do your        |
|     own testing! More info at https://www.vasp.at/wiki/index.php/NCORE      |
|     Unfortunately you need to use the default for GW and RPA                |
|     calculations (for HF NCORE is supported but not extensively tested      |
|     yet).                                                                   |
|                                                                             |
 -----------------------------------------------------------------------------

 Reading from existing POTCAR
 -----------------------------------------------------------------------------
|                                                                             |
|               ----> ADVICE to this user running VASP <----                  |
|                                                                             |
|     You have a (more or less) 'large supercell' and for larger cells it     |
|     might be more efficient to use real-space projection operators.         |
|     Therefore, try LREAL= Auto in the INCAR file.                           |
|     Mind: If you want to do very accurate calculations, keep the            |
|     reciprocal projection scheme (i.e. LREAL=.FALSE.).                      |
|                                                                             |
 -----------------------------------------------------------------------------

 LDA part: xc-table for (Slater+PW92), standard interpolation
 POSCAR, INCAR and KPOINTS ok, starting setup
 FFT: planning ... GRIDC
 FFT: planning ... GRID_SOFT
 FFT: planning ... GRID
 WAVECAR not read
 entering main loop
       N       E                     dE             d eps       ncg     rms          rms(c)
DAV:   1     0.475693640307E+04    0.47569E+04   -0.21076E+05 10164   0.125E+03
DAV:   2     0.230560858549E+03   -0.45264E+04   -0.43896E+04  8904   0.468E+02
DAV:   3    -0.517591354397E+03   -0.74815E+03   -0.71236E+03 13692   0.141E+02
DAV:   4    -0.613597393507E+03   -0.96006E+02   -0.92796E+02 14028   0.497E+01
DAV:   5    -0.623213269324E+03   -0.96159E+01   -0.91948E+01 13692   0.146E+01    0.798E+01
RMM:   6    -0.586579129901E+03    0.36634E+02   -0.18709E+03 11889   0.858E+01    0.935E+01
RMM:   7    -0.427227576087E+03    0.15935E+03   -0.50025E+02 12106   0.436E+01    0.381E+01
RMM:   8    -0.460629200139E+03   -0.33402E+02   -0.25644E+02 12348   0.210E+01    0.523E+01
RMM:   9    -0.452101907109E+03    0.85273E+01   -0.13807E+02 12717   0.112E+01    0.392E+01
RMM:  10    -0.446541903936E+03    0.55600E+01   -0.38868E+01 11960   0.689E+00    0.336E+01
RMM:  11    -0.443694666924E+03    0.28472E+01   -0.17921E+01 12385   0.546E+00    0.282E+01
RMM:  12    -0.440397763303E+03    0.32969E+01   -0.95547E+00 12169   0.413E+00    0.129E+01
RMM:  13    -0.441934255116E+03   -0.15365E+01   -0.95832E+00 12153   0.393E+00    0.240E+01
RMM:  14    -0.441494441946E+03    0.43981E+00   -0.98816E+00 12696   0.403E+00    0.190E+01
RMM:  15    -0.441459669582E+03    0.34772E-01   -0.56147E+00 12775   0.297E+00    0.140E+01
RMM:  16    -0.441341127905E+03    0.11854E+00   -0.38953E+00 12063   0.292E+00    0.165E+01
RMM:  17    -0.441340804174E+03    0.32373E-03   -0.34906E+00 12571   0.240E+00    0.166E+01
RMM:  18    -0.440497441638E+03    0.84336E+00   -0.26074E+00 12381   0.216E+00    0.931E+00
RMM:  19    -0.440472848987E+03    0.24593E-01   -0.21719E+00 12713   0.153E+00    0.882E+00
RMM:  20    -0.440509756400E+03   -0.36907E-01   -0.18782E+00 12692   0.129E+00    0.686E+00
RMM:  21    -0.440536431000E+03   -0.26675E-01   -0.16375E+00 12143   0.108E+00    0.435E+00
RMM:  22    -0.440603634982E+03   -0.67204E-01   -0.11117E+00 12599   0.874E-01    0.508E+00
RMM:  23    -0.440604369285E+03   -0.73430E-03   -0.72093E-01 12152   0.733E-01    0.348E+00
RMM:  24    -0.440589011556E+03    0.15358E-01   -0.59786E-01 12370   0.748E-01    0.180E+00
RMM:  25    -0.440637626080E+03   -0.48615E-01   -0.57815E-01 12466   0.653E-01    0.173E+00
RMM:  26    -0.440686711734E+03   -0.49086E-01   -0.48661E-01 12845   0.576E-01    0.217E+00
RMM:  27    -0.440721760618E+03   -0.35049E-01   -0.42247E-01 12679   0.439E-01    0.198E+00
RMM:  28    -0.440738760533E+03   -0.17000E-01   -0.33342E-01 12314   0.334E-01    0.987E-01
RMM:  29    -0.440763644947E+03   -0.24884E-01   -0.29036E-01 12564   0.271E-01    0.538E-01
RMM:  30    -0.440786343945E+03   -0.22699E-01   -0.23497E-01 12329   0.227E-01    0.432E-01
RMM:  31    -0.440806916131E+03   -0.20572E-01   -0.21364E-01 12036   0.196E-01    0.246E-01
RMM:  32    -0.440825364139E+03   -0.18448E-01   -0.18089E-01 12184   0.171E-01    0.315E-01
RMM:  33    -0.440839855529E+03   -0.14491E-01   -0.15194E-01 11657   0.161E-01    0.167E-01
RMM:  34    -0.440853630584E+03   -0.13775E-01   -0.13730E-01 12372   0.169E-01    0.268E-01
RMM:  35    -0.440864879146E+03   -0.11249E-01   -0.11429E-01 11672   0.138E-01    0.128E-01
RMM:  36    -0.440875405352E+03   -0.10526E-01   -0.10602E-01 10986   0.111E-01    0.765E-02
RMM:  37    -0.440884319660E+03   -0.89143E-02   -0.88315E-02 10698   0.982E-02    0.128E-01
RMM:  38    -0.440892511362E+03   -0.81917E-02   -0.81729E-02 10358   0.869E-02    0.109E-01
RMM:  39    -0.440899372210E+03   -0.68608E-02   -0.68470E-02 10099   0.789E-02    0.361E-02
RMM:  40    -0.440905803476E+03   -0.64313E-02   -0.63860E-02  9380   0.711E-02    0.349E-02
RMM:  41    -0.440911153788E+03   -0.53503E-02   -0.53057E-02  8957   0.655E-02    0.268E-02
RMM:  42    -0.440916161791E+03   -0.50080E-02   -0.49644E-02 10386   0.649E-02    0.370E-02
RMM:  43    -0.440920369127E+03   -0.42073E-02   -0.41761E-02  9291   0.582E-02    0.162E-02
RMM:  44    -0.440924347353E+03   -0.39782E-02   -0.39469E-02  8263   0.524E-02    0.209E-02
RMM:  45    -0.440927693091E+03   -0.33457E-02   -0.33157E-02  7533   0.486E-02    0.217E-02
RMM:  46    -0.440930846091E+03   -0.31530E-02   -0.31360E-02  7103   0.458E-02    0.364E-02
RMM:  47    -0.440933590885E+03   -0.27448E-02   -0.26913E-02  6780   0.453E-02    0.114E-01
RMM:  48    -0.440936111209E+03   -0.25203E-02   -0.25064E-02  6204   0.391E-02    0.133E-01
RMM:  49    -0.440938295231E+03   -0.21840E-02   -0.21716E-02  5970   0.363E-02    0.146E-01
RMM:  50    -0.440940316696E+03   -0.20215E-02   -0.20076E-02  5771   0.337E-02    0.167E-01
RMM:  51    -0.440942096660E+03   -0.17800E-02   -0.17676E-02  5718   0.315E-02    0.183E-01
RMM:  52    -0.440943718148E+03   -0.16215E-02   -0.16255E-02  5783   0.305E-02    0.191E-01
RMM:  53    -0.440945091774E+03   -0.13736E-02   -0.13801E-02  5774   0.279E-02    0.198E-01
RMM:  54    -0.440946440445E+03   -0.13487E-02   -0.13390E-02  5464   0.267E-02    0.213E-01
RMM:  55    -0.440947558627E+03   -0.11182E-02   -0.11239E-02  5943   0.244E-02    0.218E-01
RMM:  56    -0.440948640603E+03   -0.10820E-02   -0.10918E-02  6071   0.248E-02    0.223E-01
RMM:  57    -0.440949569043E+03   -0.92844E-03   -0.90920E-03  5560   0.232E-02    0.242E-01
RMM:  58    -0.440950462334E+03   -0.89329E-03   -0.89932E-03  5227   0.210E-02    0.249E-01
RMM:  59    -0.440951249491E+03   -0.78716E-03   -0.78281E-03  5590   0.217E-02    0.260E-01
RMM:  60    -0.440951963742E+03   -0.71425E-03   -0.70875E-03  5443   0.187E-02
 -----------------------------------------------------------------------------
|                                                                             |
|           W    W    AA    RRRRR   N    N  II  N    N   GGGG   !!!           |
|           W    W   A  A   R    R  NN   N  II  NN   N  G    G  !!!           |
|           W    W  A    A  R    R  N N  N  II  N N  N  G       !!!           |
|           W WW W  AAAAAA  RRRRR   N  N N  II  N  N N  G  GGG   !            |
|           WW  WW  A    A  R   R   N   NN  II  N   NN  G    G                |
|           W    W  A    A  R    R  N    N  II  N    N   GGGG   !!!           |
|                                                                             |
|     The electronic self-consistency was not achieved in the given           |
|     number of steps (NELM). The forces and other quantities evaluated       |
|     might not be reliable so examine the results carefully. If you find     |
|     spurious results, we suggest increasing NELM, if you were close to      |
|     convergence or switching to a different ALGO or adjusting the           |
|     density mixing parameters otherwise.                                    |
|                                                                             |
 -----------------------------------------------------------------------------

   1 F= -.44095196E+03 E0= -.44061641E+03  d E =-.440952E+03
 curvature:   0.00 expect dE= 0.000E+00 dE for cont linesearch  0.000E+00
 trial: gam= 0.00000 g(F)=  0.735E+00 g(S)=  0.309E+03 ort = 0.000E+00 (trialstep = 0.100E+01)
 search vector abs. value=  0.310E+03
 bond charge predicted
       N       E                     dE             d eps       ncg     rms          rms(c)
DAV:   1    -0.348150030601E+04   -0.30405E+04   -0.68618E+04 11004   0.797E+02    0.336E+02
RMM:   2    -0.109885560883E+04    0.23826E+04   -0.55722E+03 12624   0.229E+02    0.160E+02
RMM:   3    -0.602468608309E+03    0.49639E+03   -0.29496E+03 11820   0.154E+02    0.500E+01
RMM:   4    -0.641853512522E+03   -0.39385E+02   -0.61070E+02 10498   0.840E+01    0.527E+01
RMM:   5    -0.607017733317E+03    0.34836E+02   -0.17707E+02 11757   0.374E+01    0.194E+01
RMM:   6    -0.606771692182E+03    0.24604E+00   -0.55458E+01 11786   0.169E+01    0.180E+01
RMM:   7    -0.606948791759E+03   -0.17710E+00   -0.19385E+01 12005   0.973E+00    0.159E+01
RMM:   8    -0.604699063542E+03    0.22497E+01   -0.75853E+00  9163   0.755E+00    0.842E+00
RMM:   9    -0.605095643447E+03   -0.39658E+00   -0.54368E+00 10692   0.505E+00    0.767E+00
RMM:  10    -0.604545320589E+03    0.55032E+00   -0.11251E+00 10528   0.277E+00    0.395E+00
RMM:  11    -0.604376706803E+03    0.16861E+00   -0.72755E-01 10589   0.190E+00    0.210E+00
RMM:  12    -0.604427639808E+03   -0.50933E-01   -0.76496E-01 11025   0.159E+00    0.236E+00
RMM:  13    -0.604399864311E+03    0.27775E-01   -0.24436E-01 11394   0.955E-01    0.117E+00
RMM:  14    -0.604394009046E+03    0.58553E-02   -0.12767E-01 10960   0.476E-01    0.400E-01
RMM:  15    -0.604396910575E+03   -0.29015E-02   -0.55721E-02 11467   0.304E-01    0.354E-01
RMM:  16    -0.604398646993E+03   -0.17364E-02   -0.32463E-02 11670   0.215E-01    0.204E-01
RMM:  17    -0.604400157682E+03   -0.15107E-02   -0.18394E-02 11383   0.127E-01    0.138E-01
RMM:  18    -0.604400851426E+03   -0.69374E-03   -0.88282E-03 11173   0.899E-02    0.140E-01
RMM:  19    -0.604401197482E+03   -0.34606E-03   -0.64086E-03 10776   0.993E-02    0.101E-01
RMM:  20    -0.604401449395E+03   -0.25191E-03   -0.36235E-03  9283   0.554E-02    0.427E-02
RMM:  21    -0.604401655090E+03   -0.20570E-03   -0.23339E-03  8124   0.310E-02    0.272E-02
RMM:  22    -0.604401746901E+03   -0.91811E-04   -0.10035E-03  6551   0.238E-02    0.273E-02
RMM:  23    -0.604401813283E+03   -0.66382E-04   -0.80039E-04  7854   0.210E-02    0.124E-02
RMM:  24    -0.604401841210E+03   -0.27927E-04   -0.29429E-04  6326   0.191E-02    0.666E-03
RMM:  25    -0.604401866502E+03   -0.25292E-04   -0.26070E-04  5866   0.108E-02    0.407E-03
RMM:  26    -0.604401876104E+03   -0.96018E-05   -0.99726E-05  5760   0.856E-03
   2 F= -.60440188E+03 E0= -.60433984E+03  d E =-.163450E+03
 trial-energy change: -163.449912  1 .order   -4.932894 -310.049349  300.183562
 step:   0.7776(harm=  0.5081)  dis= 0.02421  next Energy=  -636.036979 (dE=-0.195E+03)
 bond charge predicted
       N       E                     dE             d eps       ncg     rms          rms(c)
DAV:   1    -0.882628196671E+03   -0.27823E+03   -0.55401E+03  9072   0.260E+02    0.149E+02
RMM:   2    -0.111331704360E+04   -0.23069E+03   -0.10974E+03  9548   0.859E+01    0.991E+01
RMM:   3    -0.782610289824E+03    0.33071E+03   -0.48849E+02 10671   0.504E+01    0.676E+01
RMM:   4    -0.690335536786E+03    0.92275E+02   -0.11936E+02 10451   0.278E+01    0.474E+01
RMM:   5    -0.655939123120E+03    0.34396E+02   -0.15888E+02 10795   0.296E+01    0.440E+01
RMM:   6    -0.648780948048E+03    0.71582E+01   -0.30657E+01 10911   0.140E+01    0.333E+01
RMM:   7    -0.657795541501E+03   -0.90146E+01   -0.23365E+01 10724   0.111E+01    0.343E+01
RMM:   8    -0.641555863896E+03    0.16240E+02   -0.10997E+01  9912   0.896E+00    0.125E+01
RMM:   9    -0.641180414768E+03    0.37545E+00   -0.10036E+01 11496   0.595E+00    0.985E+00
RMM:  10    -0.641075240429E+03    0.10517E+00   -0.26330E+00 11920   0.299E+00    0.814E+00
RMM:  11    -0.640453604795E+03    0.62164E+00   -0.64470E-01 10286   0.189E+00    0.270E+00
RMM:  12    -0.640525998113E+03   -0.72393E-01   -0.79256E-01 11442   0.143E+00    0.439E+00
RMM:  13    -0.640544775980E+03   -0.18778E-01   -0.66625E-01 11841   0.134E+00    0.290E+00
RMM:  14    -0.640586889663E+03   -0.42114E-01   -0.19386E-01 11646   0.853E-01    0.374E+00
RMM:  15    -0.640509481900E+03    0.77408E-01   -0.71053E-02 10632   0.586E-01    0.294E+00
RMM:  16    -0.640421786414E+03    0.87695E-01   -0.22040E-01 11703   0.770E-01    0.665E-01
RMM:  17    -0.640434366360E+03   -0.12580E-01   -0.20175E-01 12095   0.513E-01    0.845E-01
RMM:  18    -0.640436798899E+03   -0.24325E-02   -0.43354E-02 12482   0.329E-01    0.741E-01
RMM:  19    -0.640436778621E+03    0.20278E-04   -0.24449E-02 11219   0.184E-01    0.901E-01
RMM:  20    -0.640427849732E+03    0.89289E-02   -0.16895E-02 11402   0.218E-01    0.332E-01
RMM:  21    -0.640427541331E+03    0.30840E-03   -0.12370E-02 11374   0.128E-01    0.211E-01
RMM:  22    -0.640427604169E+03   -0.62838E-04   -0.41615E-03 10995   0.904E-02    0.762E-02
RMM:  23    -0.640427785966E+03   -0.18180E-03   -0.20475E-03 10831   0.541E-02    0.100E-01
RMM:  24    -0.640427783538E+03    0.24277E-05   -0.10852E-03  8994   0.471E-02    0.341E-02
RMM:  25    -0.640427850466E+03   -0.66928E-04   -0.75236E-04  8630   0.278E-02    0.249E-02
RMM:  26    -0.640427893691E+03   -0.43225E-04   -0.40842E-04  7615   0.253E-02    0.366E-02
RMM:  27    -0.640427901619E+03   -0.79283E-05   -0.25029E-04  6301   0.148E-02    0.156E-02
RMM:  28    -0.640427917496E+03   -0.15877E-04   -0.21317E-04  7053   0.130E-02    0.382E-03
RMM:  29    -0.640427924616E+03   -0.71199E-05   -0.69313E-05  6063   0.137E-02
   3 F= -.64042792E+03 E0= -.64034589E+03  d E =-.199476E+03
 curvature:  -0.18 expect dE=-0.781E+00 dE for cont linesearch -0.427E+00
 ZBRENT: interpolating
 opt :   0.7961  next Energy=  -640.680631 (dE=-0.200E+03)
 bond charge predicted
       N       E                     dE             d eps       ncg     rms          rms(c)
DAV:   1    -0.642181203160E+03   -0.17533E+01   -0.33335E+01  9408   0.188E+01    0.893E+00
RMM:   2    -0.645130171801E+03   -0.29490E+01   -0.10494E+01  8735   0.852E+00    0.247E+01
RMM:   3    -0.641586818549E+03    0.35434E+01   -0.23700E+00  9263   0.494E+00    0.907E+00
RMM:   4    -0.641221182982E+03    0.36564E+00   -0.85020E-01 10213   0.267E+00    0.604E+00
RMM:   5    -0.640950477451E+03    0.27071E+00   -0.36672E-01 10350   0.152E+00    0.334E+00
RMM:   6    -0.640920671548E+03    0.29806E-01   -0.25018E-01 10270   0.121E+00    0.336E+00
RMM:   7    -0.640848189559E+03    0.72482E-01   -0.12148E-01  9805   0.903E-01    0.104E+00
RMM:   8    -0.640841852883E+03    0.63367E-02   -0.46538E-02 11036   0.527E-01    0.839E-01
RMM:   9    -0.640841405790E+03    0.44709E-03   -0.13720E-02 11057   0.292E-01    0.783E-01
RMM:  10    -0.640838427670E+03    0.29781E-02   -0.49353E-03 10696   0.179E-01    0.256E-01
RMM:  11    -0.640838808743E+03   -0.38107E-03   -0.24378E-03 11250   0.104E-01    0.361E-01
RMM:  12    -0.640838324415E+03    0.48433E-03   -0.12038E-03 10285   0.814E-02    0.148E-01
RMM:  13    -0.640838402539E+03   -0.78124E-04   -0.64573E-04 10538   0.545E-02    0.137E-01
RMM:  14    -0.640838448124E+03   -0.45585E-04   -0.42317E-04  9419   0.447E-02    0.130E-01
RMM:  15    -0.640838400475E+03    0.47649E-04   -0.23023E-04  9507   0.348E-02    0.277E-02
RMM:  16    -0.640838401939E+03   -0.14646E-05   -0.11367E-04  8003   0.222E-02    0.164E-02
RMM:  17    -0.640838407453E+03   -0.55141E-05   -0.60566E-05  6524   0.168E-02
   4 F= -.64083841E+03 E0= -.64075840E+03  d E =-.199886E+03
 curvature:  -0.11 expect dE=-0.254E+00 dE for cont linesearch -0.174E-01
 ZBRENT: interpolating
 opt :   0.8026  next Energy=  -640.861979 (dE=-0.200E+03)
 bond charge predicted
       N       E                     dE             d eps       ncg     rms          rms(c)
DAV:   1    -0.641031571848E+03   -0.19317E+00   -0.40554E+00 10136   0.660E+00    0.320E+00
RMM:   2    -0.641430869506E+03   -0.39930E+00   -0.12041E+00  8690   0.288E+00    0.841E+00
RMM:   3    -0.640939078944E+03    0.49179E+00   -0.30369E-01  9062   0.179E+00    0.281E+00
RMM:   4    -0.640917203191E+03    0.21876E-01   -0.10391E-01 10363   0.929E-01    0.239E+00
RMM:   5    -0.640882232021E+03    0.34971E-01   -0.43441E-02 10133   0.542E-01    0.126E+00
RMM:   6    -0.640876782087E+03    0.54499E-02   -0.28787E-02 10232   0.412E-01    0.110E+00
RMM:   7    -0.640869283957E+03    0.74981E-02   -0.14268E-02  9910   0.304E-01    0.459E-01
RMM:   8    -0.640869784576E+03   -0.50062E-03   -0.63765E-03 10958   0.196E-01    0.609E-01
RMM:   9    -0.640867815364E+03    0.19692E-02   -0.20422E-03  9870   0.124E-01    0.148E-01
RMM:  10    -0.640867770117E+03    0.45247E-04   -0.73247E-04 11301   0.662E-02    0.114E-01
RMM:  11    -0.640867785285E+03   -0.15169E-04   -0.33412E-04  9605   0.411E-02    0.115E-01
RMM:  12    -0.640867742382E+03    0.42903E-04   -0.15144E-04  9082   0.298E-02    0.447E-02
RMM:  13    -0.640867769557E+03   -0.27175E-04   -0.89439E-05  8352   0.224E-02    0.554E-02
RMM:  14    -0.640867771769E+03   -0.22120E-05   -0.53502E-05  7054   0.191E-02
   5 F= -.64086777E+03 E0= -.64078847E+03  d E =-.199916E+03
 curvature:  -0.14 expect dE=-0.334E+00 dE for cont linesearch -0.378E-05
 trial: gam= 0.00785 g(F)=  0.234E+01 g(S)=  0.599E-03 ort =-0.907E-01 (trialstep = 0.961E+00)
 search vector abs. value=  0.236E+01
 bond charge predicted
       N       E                     dE             d eps       ncg     rms          rms(c)
DAV:   1    -0.639251970596E+03    0.16158E+01   -0.37261E+02  9800   0.630E+01    0.352E+00
RMM:   2    -0.642172020400E+03   -0.29200E+01   -0.30576E+01 12445   0.167E+01    0.578E+00
RMM:   3    -0.642510817815E+03   -0.33880E+00   -0.44524E+00 12534   0.598E+00    0.510E+00
RMM:   4    -0.642382026785E+03    0.12879E+00   -0.76173E-01 12688   0.217E+00    0.192E+00
RMM:   5    -0.642366648751E+03    0.15378E-01   -0.29157E-01 11819   0.120E+00    0.209E+00
RMM:   6    -0.642355660316E+03    0.10988E-01   -0.15454E-01 11590   0.739E-01    0.191E+00
RMM:   7    -0.642358386937E+03   -0.27266E-02   -0.12933E-01 10860   0.655E-01    0.188E+00
RMM:   8    -0.642340220381E+03    0.18167E-01   -0.74549E-02 11498   0.510E-01    0.743E-01
RMM:   9    -0.642338884551E+03    0.13358E-02   -0.35617E-02 11587   0.292E-01    0.487E-01
RMM:  10    -0.642339164315E+03   -0.27976E-03   -0.19777E-02 11360   0.194E-01    0.321E-01
RMM:  11    -0.642339673474E+03   -0.50916E-03   -0.14307E-02 11343   0.164E-01    0.246E-01
RMM:  12    -0.642340435209E+03   -0.76173E-03   -0.85399E-03 11659   0.121E-01    0.271E-01
RMM:  13    -0.642340417149E+03    0.18060E-04   -0.49692E-03 10336   0.781E-02    0.856E-02
RMM:  14    -0.642340660522E+03   -0.24337E-03   -0.35574E-03 10319   0.526E-02    0.891E-02
RMM:  15    -0.642340820606E+03   -0.16008E-03   -0.19832E-03  9563   0.401E-02    0.655E-02
RMM:  16    -0.642340945019E+03   -0.12441E-03   -0.13537E-03  9557   0.371E-02    0.302E-02
RMM:  17    -0.642340988023E+03   -0.43004E-04   -0.64265E-04  7712   0.267E-02    0.190E-02
RMM:  18    -0.642341029411E+03   -0.41388E-04   -0.45252E-04  6586   0.176E-02    0.246E-02
RMM:  19    -0.642341048535E+03   -0.19124E-04   -0.25426E-04  6305   0.159E-02    0.814E-03
RMM:  20    -0.642341065441E+03   -0.16905E-04   -0.18177E-04  6361   0.138E-02    0.577E-03
RMM:  21    -0.642341074136E+03   -0.86956E-05   -0.98777E-05  5927   0.124E-02
   6 F= -.64234107E+03 E0= -.64226322E+03  d E =-.147330E+01
 trial-energy change:   -1.473302  1 .order   -1.464910   -2.249158   -0.680661
 step:   1.3592(harm=  1.3773)  dis= 0.06806  next Energy=  -642.482945 (dE=-0.162E+01)
 bond charge predicted
       N       E                     dE             d eps       ncg     rms          rms(c)
DAV:   1    -0.641957216452E+03    0.38385E+00   -0.64405E+01  9800   0.262E+01    0.148E+00
RMM:   2    -0.642455815701E+03   -0.49860E+00   -0.52075E+00 12389   0.691E+00    0.253E+00
RMM:   3    -0.642509018587E+03   -0.53203E-01   -0.74942E-01 12400   0.249E+00    0.216E+00
RMM:   4    -0.642487567142E+03    0.21451E-01   -0.13198E-01 12744   0.910E-01    0.754E-01
RMM:   5    -0.642483916680E+03    0.36505E-02   -0.49714E-02 11812   0.492E-01    0.709E-01
RMM:   6    -0.642484434756E+03   -0.51808E-03   -0.26420E-02 11578   0.300E-01    0.812E-01
RMM:   7    -0.642483755153E+03    0.67960E-03   -0.20495E-02 11007   0.257E-01    0.673E-01
RMM:   8    -0.642481395820E+03    0.23593E-02   -0.11370E-02 11337   0.196E-01    0.265E-01
RMM:   9    -0.642481423635E+03   -0.27815E-04   -0.57748E-03 11463   0.114E-01    0.221E-01
RMM:  10    -0.642481522304E+03   -0.98669E-04   -0.32868E-03 10546   0.775E-02    0.163E-01
RMM:  11    -0.642481610252E+03   -0.87948E-04   -0.23648E-03 11108   0.651E-02    0.122E-01
RMM:  12    -0.642481689397E+03   -0.79145E-04   -0.14632E-03 10345   0.501E-02    0.873E-02
RMM:  13    -0.642481714611E+03   -0.25214E-04   -0.88329E-04  8819   0.335E-02    0.327E-02
RMM:  14    -0.642481762837E+03   -0.48226E-04   -0.60200E-04  7994   0.248E-02    0.427E-02
RMM:  15    -0.642481788231E+03   -0.25394E-04   -0.35053E-04  7353   0.211E-02    0.222E-02
RMM:  16    -0.642481812503E+03   -0.24272E-04   -0.23847E-04  6887   0.178E-02    0.150E-02
RMM:  17    -0.642481822838E+03   -0.10334E-04   -0.11861E-04  6191   0.148E-02    0.180E-02
RMM:  18    -0.642481827589E+03   -0.47516E-05   -0.79811E-05  5997   0.936E-03
   7 F= -.64248183E+03 E0= -.64240489E+03  d E =-.161406E+01
 curvature:  -0.69 expect dE=-0.309E+00 dE for cont linesearch -0.388E-04
 trial: gam= 0.17450 g(F)=  0.307E+00 g(S)=  0.139E+00 ort =-0.115E-01 (trialstep = 0.104E+01)
 search vector abs. value=  0.514E+00
 bond charge predicted
       N       E                     dE             d eps       ncg     rms          rms(c)
DAV:   1    -0.642026620762E+03    0.45520E+00   -0.12762E+02  9408   0.456E+01    0.807E+00
RMM:   2    -0.645299674761E+03   -0.32731E+01   -0.19612E+01 11562   0.135E+01    0.160E+01
RMM:   3    -0.642914103950E+03    0.23856E+01   -0.47186E+00  9946   0.711E+00    0.498E+00
RMM:   4    -0.643089949253E+03   -0.17585E+00   -0.12639E+00 12199   0.300E+00    0.697E+00
RMM:   5    -0.642772521671E+03    0.31743E+00   -0.37015E-01  9904   0.168E+00    0.196E+00
RMM:   6    -0.642775677963E+03   -0.31563E-02   -0.19946E-01 11386   0.974E-01    0.270E+00
RMM:   7    -0.642740455381E+03    0.35223E-01   -0.99723E-02 10501   0.747E-01    0.147E+00
RMM:   8    -0.642739721362E+03    0.73402E-03   -0.61329E-02 11234   0.524E-01    0.143E+00
RMM:   9    -0.642729917659E+03    0.98037E-02   -0.28205E-02 11368   0.376E-01    0.569E-01
RMM:  10    -0.642728295402E+03    0.16223E-02   -0.12551E-02 11754   0.205E-01    0.288E-01
RMM:  11    -0.642728801057E+03   -0.50566E-03   -0.68867E-03 11290   0.126E-01    0.358E-01
RMM:  12    -0.642728475566E+03    0.32549E-03   -0.44834E-03 10886   0.105E-01    0.157E-01
RMM:  13    -0.642728698568E+03   -0.22300E-03   -0.36115E-03 11468   0.798E-02    0.113E-01
RMM:  14    -0.642728854902E+03   -0.15633E-03   -0.19081E-03 10139   0.589E-02    0.131E-01
RMM:  15    -0.642728839001E+03    0.15900E-04   -0.12378E-03  8805   0.403E-02    0.373E-02
RMM:  16    -0.642728905831E+03   -0.66829E-04   -0.95551E-04  8847   0.307E-02    0.378E-02
RMM:  17    -0.642728955604E+03   -0.49773E-04   -0.54881E-04  8570   0.270E-02    0.345E-02
RMM:  18    -0.642728984929E+03   -0.29325E-04   -0.37335E-04  7259   0.210E-02    0.145E-02
RMM:  19    -0.642728997907E+03   -0.12978E-04   -0.19661E-04  6224   0.166E-02    0.920E-03
RMM:  20    -0.642729010037E+03   -0.12130E-04   -0.14992E-04  6612   0.123E-02    0.459E-03
RMM:  21    -0.642729019718E+03   -0.96812E-05   -0.86716E-05  5993   0.128E-02
   8 F= -.64272902E+03 E0= -.64265351E+03  d E =-.247192E+00
 trial-energy change:   -0.247192  1 .order   -0.246748   -0.461993   -0.031503
 step:   1.1164(harm=  1.1164)  dis= 0.03993  next Energy=  -642.729728 (dE=-0.248E+00)
 bond charge predicted
       N       E                     dE             d eps       ncg     rms          rms(c)
DAV:   1    -0.642724442354E+03    0.45677E-02   -0.65215E-01 10584   0.335E+00    0.576E-01
RMM:   2    -0.642743510753E+03   -0.19068E-01   -0.11597E-01 11550   0.111E+00    0.131E+00
RMM:   3    -0.642731943182E+03    0.11568E-01   -0.38271E-02 10264   0.565E-01    0.444E-01
RMM:   4    -0.642732239811E+03   -0.29663E-03   -0.69414E-03 12001   0.215E-01    0.473E-01
RMM:   5    -0.642730808810E+03    0.14310E-02   -0.20966E-03 10102   0.123E-01    0.181E-01
RMM:   6    -0.642730758274E+03    0.50536E-04   -0.11271E-03 10937   0.750E-02    0.197E-01
RMM:   7    -0.642730535806E+03    0.22247E-03   -0.63324E-04 10278   0.580E-02    0.919E-02
RMM:   8    -0.642730541543E+03   -0.57368E-05   -0.38867E-04 10523   0.419E-02    0.107E-01
RMM:   9    -0.642730484519E+03    0.57024E-04   -0.17996E-04  8535   0.311E-02    0.442E-02
RMM:  10    -0.642730475572E+03    0.89468E-05   -0.88609E-05  7017   0.202E-02
   9 F= -.64273048E+03 E0= -.64265521E+03  d E =-.248648E+00
 curvature:  -0.65 expect dE=-0.402E+00 dE for cont linesearch -0.963E-06
 trial: gam= 1.40757 g(F)=  0.229E+00 g(S)=  0.393E+00 ort = 0.876E-03 (trialstep = 0.330E+00)
 search vector abs. value=  0.164E+01
 bond charge predicted
       N       E                     dE             d eps       ncg     rms          rms(c)
DAV:   1    -0.642227327032E+03    0.50316E+00   -0.44315E+01  9800   0.275E+01    0.143E+00
RMM:   2    -0.642891203902E+03   -0.66388E+00   -0.65898E+00 12670   0.701E+00    0.318E+00
RMM:   3    -0.642923492170E+03   -0.32288E-01   -0.72961E-01 12379   0.232E+00    0.170E+00
RMM:   4    -0.642912951266E+03    0.10541E-01   -0.10737E-01 12557   0.839E-01    0.753E-01
RMM:   5    -0.642910456282E+03    0.24950E-02   -0.35375E-02 11895   0.437E-01    0.489E-01
RMM:   6    -0.642910076952E+03    0.37933E-03   -0.18201E-02 11600   0.247E-01    0.502E-01
RMM:   7    -0.642910601094E+03   -0.52414E-03   -0.13908E-02 11002   0.225E-01    0.617E-01
RMM:   8    -0.642908851178E+03    0.17499E-02   -0.75730E-03 11714   0.162E-01    0.193E-01
RMM:   9    -0.642908930208E+03   -0.79030E-04   -0.33270E-03 11517   0.903E-02    0.184E-01
RMM:  10    -0.642908909967E+03    0.20240E-04   -0.18787E-03 10422   0.650E-02    0.127E-01
RMM:  11    -0.642908971147E+03   -0.61180E-04   -0.18213E-03 11139   0.618E-02    0.689E-02
RMM:  12    -0.642909042246E+03   -0.71099E-04   -0.90734E-04 10152   0.438E-02    0.765E-02
RMM:  13    -0.642909043646E+03   -0.14000E-05   -0.53347E-04  7973   0.276E-02    0.286E-02
RMM:  14    -0.642909067825E+03   -0.24179E-04   -0.40508E-04  7774   0.223E-02    0.216E-02
RMM:  15    -0.642909089967E+03   -0.22142E-04   -0.23987E-04  7009   0.182E-02    0.192E-02
RMM:  16    -0.642909106678E+03   -0.16711E-04   -0.17100E-04  6482   0.162E-02    0.987E-03
RMM:  17    -0.642909114083E+03   -0.74051E-05   -0.91215E-05  6080   0.130E-02
  10 F= -.64290911E+03 E0= -.64283837E+03  d E =-.178639E+00
 trial-energy change:   -0.178639  1 .order   -0.175765   -0.205784   -0.145745
 step:   0.8024(harm=  1.1319)  dis= 0.06032  next Energy=  -643.021708 (dE=-0.291E+00)
 bond charge predicted
       N       E                     dE             d eps       ncg     rms          rms(c)
DAV:   1    -0.641640417203E+03    0.12687E+01   -0.90631E+01  9744   0.393E+01    0.204E+00
RMM:   2    -0.643002759663E+03   -0.13623E+01   -0.13572E+01 12702   0.101E+01    0.449E+00
RMM:   3    -0.643059441734E+03   -0.56682E-01   -0.14332E+00 12277   0.331E+00    0.228E+00
RMM:   4    -0.643039609777E+03    0.19832E-01   -0.21937E-01 12559   0.119E+00    0.102E+00
RMM:   5    -0.643036970429E+03    0.26393E-02   -0.73408E-02 12058   0.619E-01    0.811E-01
RMM:   6    -0.643035912181E+03    0.10582E-02   -0.35967E-02 11584   0.361E-01    0.774E-01
RMM:   7    -0.643035450411E+03    0.46177E-03   -0.26541E-02 11068   0.303E-01    0.722E-01
RMM:   8    -0.643032822163E+03    0.26282E-02   -0.15153E-02 11561   0.238E-01    0.311E-01
RMM:   9    -0.643033025044E+03   -0.20288E-03   -0.71473E-03 11965   0.131E-01    0.263E-01
RMM:  10    -0.643032800780E+03    0.22426E-03   -0.37678E-03 10858   0.979E-02    0.130E-01
RMM:  11    -0.643033096900E+03   -0.29612E-03   -0.35573E-03 11330   0.832E-02    0.156E-01
RMM:  12    -0.643033162342E+03   -0.65442E-04   -0.18060E-03 10353   0.651E-02    0.105E-01
RMM:  13    -0.643033149275E+03    0.13067E-04   -0.11134E-03  9074   0.403E-02    0.312E-02
RMM:  14    -0.643033204303E+03   -0.55028E-04   -0.81937E-04  8946   0.291E-02    0.192E-02
RMM:  15    -0.643033256122E+03   -0.51819E-04   -0.49955E-04  8183   0.247E-02    0.256E-02
RMM:  16    -0.643033283217E+03   -0.27095E-04   -0.30468E-04  6914   0.204E-02    0.183E-02
RMM:  17    -0.643033295889E+03   -0.12672E-04   -0.18014E-04  6193   0.142E-02    0.793E-03
RMM:  18    -0.643033305953E+03   -0.10064E-04   -0.12127E-04  6067   0.102E-02    0.623E-03
RMM:  19    -0.643033313143E+03   -0.71902E-05   -0.77298E-05  5905   0.959E-03
  11 F= -.64303331E+03 E0= -.64296752E+03  d E =-.302838E+00
 curvature:  -1.24 expect dE=-0.333E+00 dE for cont linesearch -0.251E-02
 ZBRENT: extrapolating
 opt :   0.8735  next Energy=  -643.035362 (dE=-0.305E+00)
 bond charge predicted
       N       E                     dE             d eps       ncg     rms          rms(c)
DAV:   1    -0.643003091402E+03    0.30215E-01   -0.20437E+00 10472   0.594E+00    0.312E-01
RMM:   2    -0.643033570198E+03   -0.30479E-01   -0.30774E-01 12655   0.153E+00    0.610E-01
RMM:   3    -0.643035633919E+03   -0.20637E-02   -0.36534E-02 12129   0.523E-01    0.351E-01
RMM:   4    -0.643035228129E+03    0.40579E-03   -0.52392E-03 12522   0.185E-01    0.150E-01
RMM:   5    -0.643035236558E+03   -0.84288E-05   -0.18078E-03 12022   0.924E-02    0.139E-01
RMM:   6    -0.643035169681E+03    0.66877E-04   -0.86209E-04 10688   0.582E-02    0.967E-02
RMM:   7    -0.643035173663E+03   -0.39824E-05   -0.68706E-04 10767   0.481E-02    0.933E-02
RMM:   8    -0.643035136772E+03    0.36891E-04   -0.32632E-04  9822   0.355E-02    0.383E-02
RMM:   9    -0.643035148896E+03   -0.12124E-04   -0.17848E-04  7887   0.222E-02    0.382E-02
RMM:  10    -0.643035147139E+03    0.17578E-05   -0.95356E-05  6684   0.189E-02
  12 F= -.64303515E+03 E0= -.64296996E+03  d E =-.304672E+00
 curvature:  -1.01 expect dE=-0.294E+00 dE for cont linesearch -0.903E-04
 trial: gam= 0.27429 g(F)=  0.265E+00 g(S)=  0.251E-01 ort =-0.121E-01 (trialstep = 0.439E+00)
 search vector abs. value=  0.407E+00
 bond charge predicted
       N       E                     dE             d eps       ncg     rms          rms(c)
DAV:   1    -0.642905549211E+03    0.12960E+00   -0.16483E+01  9324   0.163E+01    0.114E+00
RMM:   2    -0.643127988909E+03   -0.22244E+00   -0.23532E+00 12792   0.455E+00    0.162E+00
RMM:   3    -0.643151693170E+03   -0.23704E-01   -0.36798E-01 11932   0.158E+00    0.122E+00
RMM:   4    -0.643150827088E+03    0.86608E-03   -0.56849E-02 12259   0.602E-01    0.973E-01
RMM:   5    -0.643144419555E+03    0.64075E-02   -0.18433E-02 11460   0.326E-01    0.335E-01
RMM:   6    -0.643144814524E+03   -0.39497E-03   -0.10635E-02 11305   0.199E-01    0.444E-01
RMM:   7    -0.643144103787E+03    0.71074E-03   -0.58473E-03 10980   0.159E-01    0.277E-01
RMM:   8    -0.643143669808E+03    0.43398E-03   -0.29224E-03 11368   0.102E-01    0.905E-02
RMM:   9    -0.643143834312E+03   -0.16450E-03   -0.17054E-03 11445   0.595E-02    0.125E-01
RMM:  10    -0.643143832485E+03    0.18268E-05   -0.93577E-04  9749   0.442E-02    0.578E-02
RMM:  11    -0.643143881618E+03   -0.49133E-04   -0.65752E-04  9518   0.303E-02    0.456E-02
RMM:  12    -0.643143910243E+03   -0.28625E-04   -0.36267E-04  7708   0.243E-02    0.351E-02
RMM:  13    -0.643143929176E+03   -0.18933E-04   -0.25655E-04  6641   0.178E-02    0.155E-02
RMM:  14    -0.643143944142E+03   -0.14966E-04   -0.14976E-04  6258   0.138E-02    0.170E-02
RMM:  15    -0.643143952752E+03   -0.86101E-05   -0.98619E-05  6157   0.113E-02
  13 F= -.64314395E+03 E0= -.64308003E+03  d E =-.108806E+00
 trial-energy change:   -0.108806  1 .order   -0.108166   -0.126039   -0.090293
 step:   1.2828(harm=  1.5475)  dis= 0.03196  next Energy=  -643.235303 (dE=-0.200E+00)
 bond charge predicted
       N       E                     dE             d eps       ncg     rms          rms(c)
DAV:   1    -0.642393273418E+03    0.75067E+00   -0.61242E+01  9408   0.314E+01    0.215E+00
RMM:   2    -0.643202008805E+03   -0.80874E+00   -0.86687E+00 12866   0.858E+00    0.282E+00
RMM:   3    -0.643271351185E+03   -0.69342E-01   -0.11034E+00 11888   0.291E+00    0.218E+00
RMM:   4    -0.643264673053E+03    0.66781E-02   -0.19522E-01 12268   0.113E+00    0.167E+00
RMM:   5    -0.643246323399E+03    0.18350E-01   -0.66113E-02 11651   0.597E-01    0.642E-01
RMM:   6    -0.643247516754E+03   -0.11934E-02   -0.37719E-02 11148   0.380E-01    0.842E-01
RMM:   7    -0.643244620250E+03    0.28965E-02   -0.21127E-02 11276   0.303E-01    0.480E-01
RMM:   8    -0.643243499224E+03    0.11210E-02   -0.10388E-02 11561   0.185E-01    0.212E-01
RMM:   9    -0.643244043889E+03   -0.54466E-03   -0.60938E-03 11873   0.112E-01    0.252E-01
RMM:  10    -0.643243949265E+03    0.94625E-04   -0.33759E-03 10693   0.793E-02    0.800E-02
RMM:  11    -0.643244178056E+03   -0.22879E-03   -0.24844E-03 10777   0.510E-02    0.923E-02
RMM:  12    -0.643244255754E+03   -0.77698E-04   -0.12550E-03  9403   0.425E-02    0.504E-02
RMM:  13    -0.643244336252E+03   -0.80498E-04   -0.96758E-04  8231   0.271E-02    0.306E-02
RMM:  14    -0.643244384587E+03   -0.48335E-04   -0.49594E-04  7121   0.228E-02    0.324E-02
RMM:  15    -0.643244414658E+03   -0.30071E-04   -0.35795E-04  6474   0.174E-02    0.125E-02
RMM:  16    -0.643244433871E+03   -0.19213E-04   -0.19802E-04  6200   0.142E-02    0.107E-02
RMM:  17    -0.643244446430E+03   -0.12559E-04   -0.13319E-04  6064   0.101E-02    0.763E-03
RMM:  18    -0.643244453233E+03   -0.68028E-05   -0.76009E-05  5891   0.824E-03
  14 F= -.64324445E+03 E0= -.64318374E+03  d E =-.209306E+00
 curvature:  -1.04 expect dE=-0.253E+00 dE for cont linesearch -0.158E-02
 trial: gam= 0.60550 g(F)=  0.105E+00 g(S)=  0.140E+00 ort = 0.250E-01 (trialstep = 0.584E+00)
 search vector abs. value=  0.424E+00
 bond charge predicted
       N       E                     dE             d eps       ncg     rms          rms(c)
DAV:   1    -0.643191198071E+03    0.53248E-01   -0.28892E+01  9352   0.213E+01    0.387E+00
RMM:   2    -0.643804601081E+03   -0.61340E+00   -0.44297E+00 11550   0.674E+00    0.727E+00
RMM:   3    -0.643384520118E+03    0.42008E+00   -0.12632E+00 10079   0.357E+00    0.274E+00
RMM:   4    -0.643388861846E+03   -0.43417E-02   -0.27024E-01 11959   0.143E+00    0.270E+00
RMM:   5    -0.643335189675E+03    0.53672E-01   -0.93363E-02 10444   0.828E-01    0.776E-01
RMM:   6    -0.643332266236E+03    0.29234E-02   -0.47259E-02 11348   0.445E-01    0.774E-01
RMM:   7    -0.643332083159E+03    0.18308E-03   -0.19257E-02 10847   0.329E-01    0.802E-01
RMM:   8    -0.643328425283E+03    0.36579E-02   -0.92006E-03 11086   0.215E-01    0.239E-01
RMM:   9    -0.643328690649E+03   -0.26537E-03   -0.46426E-03 11909   0.128E-01    0.292E-01
RMM:  10    -0.643328370505E+03    0.32014E-03   -0.25403E-03 10695   0.924E-02    0.124E-01
RMM:  11    -0.643328407489E+03   -0.36984E-04   -0.15484E-03 11258   0.536E-02    0.758E-02
RMM:  12    -0.643328487110E+03   -0.79621E-04   -0.87396E-04  9583   0.402E-02    0.902E-02
RMM:  13    -0.643328488432E+03   -0.13218E-05   -0.59726E-04  8853   0.314E-02    0.309E-02
RMM:  14    -0.643328518343E+03   -0.29911E-04   -0.39605E-04  7719   0.235E-02    0.245E-02
RMM:  15    -0.643328537058E+03   -0.18715E-04   -0.23123E-04  6652   0.195E-02    0.161E-02
RMM:  16    -0.643328549178E+03   -0.12119E-04   -0.14481E-04  6234   0.123E-02    0.723E-03
RMM:  17    -0.643328557946E+03   -0.87682E-05   -0.87992E-05  6091   0.102E-02
  15 F= -.64332856E+03 E0= -.64326907E+03  d E =-.841047E-01
 trial-energy change:   -0.084105  1 .order   -0.083538   -0.151580   -0.015495
 step:   0.6483(harm=  0.6501)  dis= 0.01750  next Energy=  -643.329417 (dE=-0.850E-01)
 bond charge predicted
       N       E                     dE             d eps       ncg     rms          rms(c)
DAV:   1    -0.643327196256E+03    0.13529E-02   -0.34673E-01 10584   0.235E+00    0.423E-01
RMM:   2    -0.643334888279E+03   -0.76920E-02   -0.57033E-02 11528   0.797E-01    0.823E-01
RMM:   3    -0.643330408694E+03    0.44796E-02   -0.18841E-02 10225   0.413E-01    0.336E-01
RMM:   4    -0.643330275233E+03    0.13346E-03   -0.34193E-03 11707   0.158E-01    0.284E-01
RMM:   5    -0.643329658714E+03    0.61652E-03   -0.12347E-03 10249   0.955E-02    0.901E-02
RMM:   6    -0.643329626459E+03    0.32255E-04   -0.64603E-04 10914   0.531E-02    0.948E-02
RMM:   7    -0.643329608328E+03    0.18131E-04   -0.27557E-04  9440   0.405E-02    0.836E-02
RMM:   8    -0.643329565395E+03    0.42933E-04   -0.14152E-04  8617   0.269E-02    0.275E-02
RMM:   9    -0.643329569328E+03   -0.39333E-05   -0.76427E-05  7019   0.194E-02
  16 F= -.64332957E+03 E0= -.64327026E+03  d E =-.851161E-01
 curvature:  -0.53 expect dE=-0.495E-01 dE for cont linesearch -0.744E-06
 trial: gam= 0.43267 g(F)=  0.526E-01 g(S)=  0.408E-01 ort = 0.771E-03 (trialstep = 0.597E+00)
 search vector abs. value=  0.173E+00
 bond charge predicted
       N       E                     dE             d eps       ncg     rms          rms(c)
DAV:   1    -0.643187018506E+03    0.14255E+00   -0.12230E+01  9408   0.137E+01    0.935E-01
RMM:   2    -0.643338023635E+03   -0.15101E+00   -0.16396E+00 12380   0.396E+00    0.942E-01
RMM:   3    -0.643375066578E+03   -0.37043E-01   -0.39992E-01 12138   0.151E+00    0.883E-01
RMM:   4    -0.643373434576E+03    0.16320E-02   -0.40756E-02 12334   0.533E-01    0.530E-01
RMM:   5    -0.643372628722E+03    0.80585E-03   -0.12933E-02 12276   0.243E-01    0.345E-01
RMM:   6    -0.643372211490E+03    0.41723E-03   -0.57424E-03 11234   0.151E-01    0.258E-01
RMM:   7    -0.643372434029E+03   -0.22254E-03   -0.38174E-03 11203   0.116E-01    0.306E-01
RMM:   8    -0.643371889388E+03    0.54464E-03   -0.20815E-03 11083   0.925E-02    0.837E-02
RMM:   9    -0.643372019460E+03   -0.13007E-03   -0.11913E-03 10667   0.527E-02    0.119E-01
RMM:  10    -0.643371983830E+03    0.35630E-04   -0.60481E-04  9261   0.378E-02    0.338E-02
RMM:  11    -0.643372021213E+03   -0.37383E-04   -0.48554E-04  8697   0.259E-02    0.210E-02
RMM:  12    -0.643372045290E+03   -0.24077E-04   -0.22698E-04  7212   0.218E-02    0.275E-02
RMM:  13    -0.643372057009E+03   -0.11719E-04   -0.16847E-04  6444   0.157E-02    0.115E-02
RMM:  14    -0.643372066108E+03   -0.90992E-05   -0.93421E-05  6190   0.119E-02
  17 F= -.64337207E+03 E0= -.64331479E+03  d E =-.424968E-01
 trial-energy change:   -0.042497  1 .order   -0.041891   -0.055889   -0.027894
 step:   1.0781(harm=  1.1910)  dis= 0.01883  next Energy=  -643.383640 (dE=-0.541E-01)
 bond charge predicted
       N       E                     dE             d eps       ncg     rms          rms(c)
DAV:   1    -0.643264558738E+03    0.10750E+00   -0.79654E+00  9408   0.111E+01    0.754E-01
RMM:   2    -0.643363198489E+03   -0.98640E-01   -0.10739E+00 12381   0.320E+00    0.737E-01
RMM:   3    -0.643387236143E+03   -0.24038E-01   -0.25668E-01 12105   0.121E+00    0.699E-01
RMM:   4    -0.643386040220E+03    0.11959E-02   -0.26476E-02 12359   0.430E-01    0.393E-01
RMM:   5    -0.643385754539E+03    0.28568E-03   -0.84586E-03 12185   0.196E-01    0.285E-01
RMM:   6    -0.643385434400E+03    0.32014E-03   -0.38639E-03 11201   0.126E-01    0.190E-01
RMM:   7    -0.643385618339E+03   -0.18394E-03   -0.25287E-03 11156   0.945E-02    0.236E-01
RMM:   8    -0.643385289349E+03    0.32899E-03   -0.13342E-03 10861   0.724E-02    0.501E-02
RMM:   9    -0.643385350652E+03   -0.61303E-04   -0.81065E-04 10630   0.399E-02    0.486E-02
RMM:  10    -0.643385384432E+03   -0.33780E-04   -0.39962E-04  8606   0.288E-02    0.493E-02
RMM:  11    -0.643385395458E+03   -0.11026E-04   -0.27082E-04  7385   0.217E-02    0.163E-02
RMM:  12    -0.643385413645E+03   -0.18187E-04   -0.17067E-04  6570   0.176E-02    0.216E-02
RMM:  13    -0.643385421140E+03   -0.74950E-05   -0.10248E-04  6243   0.134E-02    0.988E-03
RMM:  14    -0.643385427758E+03   -0.66182E-05   -0.69972E-05  6100   0.999E-03
  18 F= -.64338543E+03 E0= -.64332987E+03  d E =-.558584E-01
 curvature:  -1.06 expect dE=-0.291E-01 dE for cont linesearch -0.277E-03
 ZBRENT: extrapolating
 opt :   1.1589  next Energy=  -643.385699 (dE=-0.561E-01)
 bond charge predicted
       N       E                     dE             d eps       ncg     rms          rms(c)
DAV:   1    -0.643382377752E+03    0.30434E-02   -0.22535E-01 11032   0.186E+00    0.127E-01
RMM:   2    -0.643385155227E+03   -0.27775E-02   -0.30272E-02 12385   0.533E-01    0.127E-01
RMM:   3    -0.643385789087E+03   -0.63386E-03   -0.68738E-03 11972   0.201E-01    0.120E-01
RMM:   4    -0.643385769940E+03    0.19147E-04   -0.80950E-04 11859   0.735E-02    0.753E-02
RMM:   5    -0.643385755812E+03    0.14129E-04   -0.27441E-04  9668   0.369E-02    0.454E-02
RMM:   6    -0.643385754583E+03    0.12286E-05   -0.13195E-04  8290   0.245E-02    0.390E-02
RMM:   7    -0.643385758123E+03   -0.35400E-05   -0.82560E-05  7322   0.210E-02
  19 F= -.64338576E+03 E0= -.64333046E+03  d E =-.561888E-01
 curvature:  -1.04 expect dE=-0.310E-01 dE for cont linesearch -0.368E-07
 trial: gam= 0.24586 g(F)=  0.254E-01 g(S)=  0.438E-02 ort = 0.782E-04 (trialstep = 0.709E+00)
 search vector abs. value=  0.403E-01
 bond charge predicted
       N       E                     dE             d eps       ncg     rms          rms(c)
DAV:   1    -0.643361250975E+03    0.24504E-01   -0.37939E+00  9520   0.706E+00    0.489E-01
RMM:   2    -0.643398388837E+03   -0.37138E-01   -0.40655E-01 12678   0.192E+00    0.590E-01
RMM:   3    -0.643403375543E+03   -0.49867E-02   -0.62462E-02 12019   0.653E-01    0.487E-01
RMM:   4    -0.643402526530E+03    0.84901E-03   -0.98175E-03 12084   0.253E-01    0.304E-01
RMM:   5    -0.643402044409E+03    0.48212E-03   -0.36748E-03 11470   0.138E-01    0.176E-01
RMM:   6    -0.643402100198E+03   -0.55790E-04   -0.20549E-03 11150   0.890E-02    0.191E-01
RMM:   7    -0.643401937841E+03    0.16236E-03   -0.11601E-03 10494   0.688E-02    0.105E-01
RMM:   8    -0.643401894890E+03    0.42951E-04   -0.61941E-04 10456   0.437E-02    0.570E-02
RMM:   9    -0.643401908503E+03   -0.13613E-04   -0.35106E-04  8825   0.272E-02    0.336E-02
RMM:  10    -0.643401920167E+03   -0.11664E-04   -0.20380E-04  7175   0.198E-02    0.169E-02
RMM:  11    -0.643401931910E+03   -0.11743E-04   -0.12933E-04  6461   0.157E-02    0.186E-02
RMM:  12    -0.643401937412E+03   -0.55022E-05   -0.75773E-05  6212   0.130E-02
  20 F= -.64340194E+03 E0= -.64334732E+03  d E =-.161793E-01
 trial-energy change:   -0.016179  1 .order   -0.015866   -0.021108   -0.010625
 step:   1.2547(harm=  1.4277)  dis= 0.01556  next Energy=  -643.406168 (dE=-0.204E-01)
 bond charge predicted
       N       E                     dE             d eps       ncg     rms          rms(c)
DAV:   1    -0.643383149778E+03    0.18782E-01   -0.22483E+00  9800   0.542E+00    0.377E-01
RMM:   2    -0.643405309687E+03   -0.22160E-01   -0.24166E-01 12685   0.148E+00    0.466E-01
RMM:   3    -0.643408097036E+03   -0.27873E-02   -0.36676E-02 11987   0.503E-01    0.366E-01
RMM:   4    -0.643407643980E+03    0.45306E-03   -0.59282E-03 12092   0.195E-01    0.235E-01
RMM:   5    -0.643407359790E+03    0.28419E-03   -0.22631E-03 11358   0.107E-01    0.134E-01
RMM:   6    -0.643407391602E+03   -0.31812E-04   -0.12794E-03 10893   0.691E-02    0.142E-01
RMM:   7    -0.643407304748E+03    0.86853E-04   -0.72881E-04 10025   0.540E-02    0.769E-02
RMM:   8    -0.643407284999E+03    0.19750E-04   -0.39899E-04  9774   0.348E-02    0.388E-02
RMM:   9    -0.643407299207E+03   -0.14208E-04   -0.23317E-04  7935   0.228E-02    0.273E-02
RMM:  10    -0.643407307377E+03   -0.81708E-05   -0.13473E-04  6654   0.170E-02    0.140E-02
RMM:  11    -0.643407315348E+03   -0.79701E-05   -0.88259E-05  6249   0.132E-02
  21 F= -.64340732E+03 E0= -.64335320E+03  d E =-.215572E-01
 curvature:  -0.91 expect dE=-0.897E-02 dE for cont linesearch -0.312E-03
 ZBRENT: extrapolating
 opt :   1.4348  next Energy=  -643.407650 (dE=-0.219E-01)
 bond charge predicted
       N       E                     dE             d eps       ncg     rms          rms(c)
DAV:   1    -0.643405078424E+03    0.22290E-02   -0.24515E-01 10192   0.179E+00    0.124E-01
RMM:   2    -0.643407511001E+03   -0.24326E-02   -0.26438E-02 12690   0.489E-01    0.155E-01
RMM:   3    -0.643407820456E+03   -0.30945E-03   -0.40905E-03 12039   0.166E-01    0.120E-01
RMM:   4    -0.643407775144E+03    0.45312E-04   -0.67540E-04 11289   0.648E-02    0.772E-02
RMM:   5    -0.643407747703E+03    0.27441E-04   -0.28283E-04  9664   0.384E-02    0.452E-02
RMM:   6    -0.643407752658E+03   -0.49549E-05   -0.16413E-04  8685   0.261E-02    0.447E-02
RMM:   7    -0.643407745505E+03    0.71529E-05   -0.93883E-05  7090   0.222E-02
  22 F= -.64340775E+03 E0= -.64335376E+03  d E =-.219874E-01
 curvature:  -0.98 expect dE=-0.115E-01 dE for cont linesearch -0.178E-05
 trial: gam= 0.37281 g(F)=  0.840E-02 g(S)=  0.340E-02 ort = 0.271E-03 (trialstep = 0.854E+00)
 search vector abs. value=  0.176E-01
 bond charge predicted
       N       E                     dE             d eps       ncg     rms          rms(c)
DAV:   1    -0.643384913734E+03    0.22839E-01   -0.25637E+00  9408   0.607E+00    0.450E-01
RMM:   2    -0.643412437843E+03   -0.27524E-01   -0.31151E-01 12811   0.166E+00    0.436E-01
RMM:   3    -0.643416281348E+03   -0.38435E-02   -0.42530E-02 11727   0.560E-01    0.477E-01
RMM:   4    -0.643415639099E+03    0.64225E-03   -0.75996E-03 11950   0.227E-01    0.341E-01
RMM:   5    -0.643414915111E+03    0.72399E-03   -0.28369E-03 11374   0.124E-01    0.154E-01
RMM:   6    -0.643414919425E+03   -0.43137E-05   -0.14831E-03 11313   0.757E-02    0.160E-01
RMM:   7    -0.643414846648E+03    0.72777E-04   -0.86782E-04 10188   0.612E-02    0.122E-01
RMM:   8    -0.643414750468E+03    0.96179E-04   -0.45522E-04 10118   0.414E-02    0.360E-02
RMM:   9    -0.643414768071E+03   -0.17603E-04   -0.26234E-04  8610   0.261E-02    0.377E-02
RMM:  10    -0.643414770733E+03   -0.26621E-05   -0.14137E-04  7045   0.202E-02    0.149E-02
RMM:  11    -0.643414778834E+03   -0.81007E-05   -0.10210E-04  6429   0.134E-02    0.133E-02
RMM:  12    -0.643414783172E+03   -0.43377E-05   -0.54032E-05  6188   0.122E-02
  23 F= -.64341478E+03 E0= -.64336100E+03  d E =-.703767E-02
 trial-energy change:   -0.007038  1 .order   -0.006793   -0.010163   -0.003423
 step:   1.1873(harm=  1.2881)  dis= 0.00880  next Energy=  -643.415465 (dE=-0.772E-02)
 bond charge predicted
       N       E                     dE             d eps       ncg     rms          rms(c)
DAV:   1    -0.643411144793E+03    0.36340E-02   -0.39013E-01 10192   0.237E+00    0.175E-01
RMM:   2    -0.643415355289E+03   -0.42105E-02   -0.47466E-02 12807   0.650E-01    0.174E-01
RMM:   3    -0.643415945454E+03   -0.59016E-03   -0.65652E-03 11708   0.218E-01    0.188E-01
RMM:   4    -0.643415848015E+03    0.97438E-04   -0.11786E-03 11670   0.889E-02    0.134E-01
RMM:   5    -0.643415735784E+03    0.11223E-03   -0.46489E-04 10087   0.501E-02    0.587E-02
RMM:   6    -0.643415739931E+03   -0.41470E-05   -0.25434E-04  9745   0.331E-02    0.629E-02
RMM:   7    -0.643415730200E+03    0.97305E-05   -0.15077E-04  8448   0.276E-02    0.470E-02
RMM:   8    -0.643415715958E+03    0.14242E-04   -0.82337E-05  7122   0.188E-02    0.124E-02
RMM:   9    -0.643415719732E+03   -0.37732E-05   -0.51040E-05  6299   0.149E-02
  24 F= -.64341572E+03 E0= -.64336200E+03  d E =-.797423E-02
 curvature:  -0.90 expect dE=-0.441E-02 dE for cont linesearch -0.548E-04
 ZBRENT: extrapolating
 opt :   1.3032  next Energy=  -643.415780 (dE=-0.803E-02)
 bond charge predicted
       N       E                     dE             d eps       ncg     rms          rms(c)
DAV:   1    -0.643415239553E+03    0.47641E-03   -0.47289E-02 10920   0.824E-01    0.612E-02
RMM:   2    -0.643415757123E+03   -0.51757E-03   -0.58225E-03 12809   0.227E-01    0.637E-02
RMM:   3    -0.643415830745E+03   -0.73622E-04   -0.83755E-04 11434   0.767E-02    0.660E-02
RMM:   4    -0.643415818196E+03    0.12550E-04   -0.15435E-04  9396   0.337E-02    0.459E-02
RMM:   5    -0.643415805400E+03    0.12796E-04   -0.68225E-05  7207   0.220E-02    0.199E-02
RMM:   6    -0.643415806617E+03   -0.12177E-05   -0.37567E-05  6306   0.151E-02
  25 F= -.64341581E+03 E0= -.64336211E+03  d E =-.806111E-02
 curvature:  -0.99 expect dE=-0.550E-02 dE for cont linesearch -0.773E-07
 trial: gam= 0.47759 g(F)=  0.346E-02 g(S)=  0.212E-02 ort = 0.372E-04 (trialstep = 0.944E+00)
 search vector abs. value=  0.963E-02
 bond charge predicted
       N       E                     dE             d eps       ncg     rms          rms(c)
DAV:   1    -0.643402597490E+03    0.13208E-01   -0.17443E+00  9408   0.510E+00    0.618E-01
RMM:   2    -0.643426368454E+03   -0.23771E-01   -0.22578E-01 12108   0.148E+00    0.108E+00
RMM:   3    -0.643419979593E+03    0.63889E-02   -0.46181E-02 10521   0.676E-01    0.458E-01
RMM:   4    -0.643420273885E+03   -0.29429E-03   -0.94554E-03 11887   0.253E-01    0.455E-01
RMM:   5    -0.643418756865E+03    0.15170E-02   -0.32423E-03 10561   0.152E-01    0.131E-01
RMM:   6    -0.643418746408E+03    0.10458E-04   -0.16793E-03 11384   0.832E-02    0.129E-01
RMM:   7    -0.643418729662E+03    0.16746E-04   -0.75565E-04 10468   0.598E-02    0.105E-01
RMM:   8    -0.643418695743E+03    0.33919E-04   -0.37445E-04  9970   0.401E-02    0.584E-02
RMM:   9    -0.643418701110E+03   -0.53677E-05   -0.20810E-04  8634   0.258E-02    0.417E-02
RMM:  10    -0.643418701971E+03   -0.86053E-06   -0.11233E-04  7045   0.189E-02    0.148E-02
RMM:  11    -0.643418712556E+03   -0.10585E-04   -0.79224E-05  6407   0.139E-02    0.171E-02
RMM:  12    -0.643418716523E+03   -0.39668E-05   -0.42090E-05  6160   0.115E-02
  26 F= -.64341872E+03 E0= -.64336508E+03  d E =-.290991E-02
 trial-energy change:   -0.002910  1 .order   -0.002800   -0.005289   -0.000311
 step:   0.9958(harm=  1.0030)  dis= 0.00375  next Energy=  -643.418725 (dE=-0.292E-02)
 bond charge predicted
       N       E                     dE             d eps       ncg     rms          rms(c)
DAV:   1    -0.643418688098E+03    0.24458E-04   -0.54020E-03 11788   0.281E-01    0.356E-02
RMM:   2    -0.643418766849E+03   -0.78752E-04   -0.70477E-04 11930   0.824E-02    0.653E-02
RMM:   3    -0.643418740082E+03    0.26768E-04   -0.14547E-04  8483   0.383E-02    0.254E-02
RMM:   4    -0.643418741810E+03   -0.17285E-05   -0.32340E-05  6281   0.205E-02
  27 F= -.64341874E+03 E0= -.64336511E+03  d E =-.293519E-02
 curvature:  -0.85 expect dE=-0.294E-02 dE for cont linesearch -0.108E-05
 trial: gam= 0.57457 g(F)=  0.134E-02 g(S)=  0.212E-02 ort = 0.111E-03 (trialstep = 0.954E+00)
 search vector abs. value=  0.676E-02
 bond charge predicted
       N       E                     dE             d eps       ncg     rms          rms(c)
DAV:   1    -0.643409845434E+03    0.88946E-02   -0.12350E+00  9464   0.431E+00    0.541E-01
RMM:   2    -0.643426237950E+03   -0.16393E-01   -0.16175E-01 11999   0.125E+00    0.924E-01
RMM:   3    -0.643421806169E+03    0.44318E-02   -0.31363E-02 10597   0.561E-01    0.452E-01
RMM:   4    -0.643421467998E+03    0.33817E-03   -0.67435E-03 11790   0.217E-01    0.369E-01
RMM:   5    -0.643420416423E+03    0.10516E-02   -0.24755E-03 10665   0.133E-01    0.121E-01
RMM:   6    -0.643420304130E+03    0.11229E-03   -0.12464E-03 11382   0.692E-02    0.929E-02
RMM:   7    -0.643420362650E+03   -0.58520E-04   -0.56118E-04 10369   0.510E-02    0.138E-01
RMM:   8    -0.643420250073E+03    0.11258E-03   -0.25553E-04  9178   0.367E-02    0.345E-02
RMM:   9    -0.643420251220E+03   -0.11473E-05   -0.14087E-04  8263   0.219E-02    0.307E-02
RMM:  10    -0.643420252007E+03   -0.78666E-06   -0.74167E-05  6677   0.186E-02
  28 F= -.64342025E+03 E0= -.64336637E+03  d E =-.151020E-02
 trial-energy change:   -0.001510  1 .order   -0.001247   -0.003359    0.000866
 step:   0.8057(harm=  0.7588)  dis= 0.00274  next Energy=  -643.420318 (dE=-0.158E-02)
 bond charge predicted
       N       E                     dE             d eps       ncg     rms          rms(c)
DAV:   1    -0.643420059432E+03    0.19179E-03   -0.29843E-02 10192   0.669E-01    0.851E-02
RMM:   2    -0.643420461894E+03   -0.40246E-03   -0.39457E-03 11930   0.195E-01    0.149E-01
RMM:   3    -0.643420342976E+03    0.11892E-03   -0.76823E-04 10486   0.883E-02    0.723E-02
RMM:   4    -0.643420332171E+03    0.10806E-04   -0.15353E-04  9884   0.345E-02    0.573E-02
RMM:   5    -0.643420307723E+03    0.24448E-04   -0.54964E-05  6706   0.250E-02    0.185E-02
RMM:   6    -0.643420304592E+03    0.31314E-05   -0.23838E-05  5724   0.147E-02
  29 F= -.64342030E+03 E0= -.64336646E+03  d E =-.156278E-02
 curvature:  -0.69 expect dE=-0.101E-02 dE for cont linesearch -0.278E-06
 trial: gam= 0.53628 g(F)=  0.809E-03 g(S)=  0.657E-03 ort =-0.523E-04 (trialstep = 0.925E+00)
 search vector abs. value=  0.336E-02
 bond charge predicted
       N       E                     dE             d eps       ncg     rms          rms(c)
DAV:   1    -0.643413554377E+03    0.67533E-02   -0.56541E-01  9604   0.286E+00    0.168E-01
RMM:   2    -0.643419726424E+03   -0.61720E-02   -0.67381E-02 12594   0.783E-01    0.118E-01
RMM:   3    -0.643421216659E+03   -0.14902E-02   -0.13405E-02 12387   0.264E-01    0.183E-01
RMM:   4    -0.643421129035E+03    0.87624E-04   -0.13742E-03 11947   0.970E-02    0.984E-02
RMM:   5    -0.643421091783E+03    0.37252E-04   -0.46324E-04 10753   0.462E-02    0.577E-02
RMM:   6    -0.643421093585E+03   -0.18023E-05   -0.20624E-04  9067   0.306E-02    0.529E-02
RMM:   7    -0.643421094478E+03   -0.89243E-06   -0.14309E-04  8582   0.263E-02    0.529E-02
RMM:   8    -0.643421079797E+03    0.14681E-04   -0.75770E-05  7100   0.207E-02    0.152E-02
RMM:   9    -0.643421083299E+03   -0.35022E-05   -0.42715E-05  6294   0.149E-02
  30 F= -.64342108E+03 E0= -.64336730E+03  d E =-.778707E-03
 trial-energy change:   -0.000779  1 .order   -0.000798   -0.001330   -0.000267
 step:   1.1565(harm=  1.1565)  dis= 0.00333  next Energy=  -643.421136 (dE=-0.831E-03)
 bond charge predicted
       N       E                     dE             d eps       ncg     rms          rms(c)
DAV:   1    -0.643420665842E+03    0.41395E-03   -0.35828E-02 10444   0.720E-01    0.433E-02
RMM:   2    -0.643421066940E+03   -0.40110E-03   -0.43294E-03 12602   0.196E-01    0.445E-02
RMM:   3    -0.643421151015E+03   -0.84075E-04   -0.80381E-04 11633   0.676E-02    0.527E-02
RMM:   4    -0.643421143176E+03    0.78389E-05   -0.10646E-04  8576   0.287E-02    0.247E-02
RMM:   5    -0.643421143241E+03   -0.64734E-07   -0.47146E-05  6485   0.172E-02
  31 F= -.64342114E+03 E0= -.64336738E+03  d E =-.838649E-03
 curvature:  -1.35 expect dE=-0.625E-03 dE for cont linesearch -0.149E-06
 trial: gam= 0.07852 g(F)=  0.429E-03 g(S)=  0.341E-04 ort =-0.192E-04 (trialstep = 0.971E+00)
 search vector abs. value=  0.481E-03
 bond charge predicted
       N       E                     dE             d eps       ncg     rms          rms(c)
DAV:   1    -0.643420293852E+03    0.84932E-03   -0.91791E-02  9744   0.113E+00    0.109E-01
RMM:   2    -0.643421433954E+03   -0.11401E-02   -0.10719E-02 11558   0.340E-01    0.210E-01
RMM:   3    -0.643421444565E+03   -0.10611E-04   -0.34348E-03 11590   0.143E-01    0.934E-02
RMM:   4    -0.643421425963E+03    0.18602E-04   -0.38437E-04 10857   0.500E-02    0.666E-02
RMM:   5    -0.643421397483E+03    0.28480E-04   -0.13614E-04  8483   0.320E-02    0.343E-02
RMM:   6    -0.643421399534E+03   -0.20509E-05   -0.71118E-05  7557   0.204E-02
  32 F= -.64342140E+03 E0= -.64336775E+03  d E =-.256293E-03
 trial-energy change:   -0.000256  1 .order   -0.000256   -0.000449   -0.000063
 step:   1.1298(harm=  1.1298)  dis= 0.00193  next Energy=  -643.421404 (dE=-0.261E-03)
 bond charge predicted
       N       E                     dE             d eps       ncg     rms          rms(c)
DAV:   1    -0.643421371365E+03    0.26118E-04   -0.25495E-03 11340   0.188E-01    0.343E-02
RMM:   2    -0.643421504497E+03   -0.13313E-03   -0.44203E-04 10555   0.651E-02    0.125E-01
RMM:   3    -0.643421400636E+03    0.10386E-03   -0.12710E-04  7667   0.345E-02    0.233E-02
RMM:   4    -0.643421397702E+03    0.29336E-05   -0.19916E-05  5546   0.162E-02
  33 F= -.64342140E+03 E0= -.64336776E+03  d E =-.254461E-03
 curvature:  -0.59 expect dE=-0.122E-03 dE for cont linesearch -0.259E-06
 trial: gam= 0.50114 g(F)=  0.110E-03 g(S)=  0.966E-04 ort =-0.146E-04 (trialstep = 0.100E+01)
 search vector abs. value=  0.313E-03
 bond charge predicted
       N       E                     dE             d eps       ncg     rms          rms(c)
DAV:   1    -0.643421184957E+03    0.21568E-03   -0.61967E-02 10472   0.900E-01    0.115E-01
RMM:   2    -0.643421879901E+03   -0.69494E-03   -0.67734E-03 11357   0.252E-01    0.194E-01
RMM:   3    -0.643421635117E+03    0.24478E-03   -0.12454E-03 11208   0.112E-01    0.840E-02
RMM:   4    -0.643421635380E+03   -0.26311E-06   -0.28244E-04 10540   0.446E-02    0.863E-02
RMM:   5    -0.643421577950E+03    0.57430E-04   -0.11418E-04  8125   0.311E-02    0.267E-02
RMM:   6    -0.643421571456E+03    0.64936E-05   -0.60401E-05  7273   0.190E-02
  34 F= -.64342157E+03 E0= -.64336790E+03  d E =-.173755E-03
 trial-energy change:   -0.000174  1 .order   -0.000129   -0.000200   -0.000058
 step:   1.1342(harm=  1.4144)  dis= 0.00100  next Energy=  -643.421575 (dE=-0.178E-03)
 bond charge predicted
       N       E                     dE             d eps       ncg     rms          rms(c)
DAV:   1    -0.643421576605E+03    0.13449E-05   -0.11021E-03 11956   0.120E-01    0.306E-02
RMM:   2    -0.643421684869E+03   -0.10826E-03   -0.23495E-04  9475   0.450E-02    0.119E-01
RMM:   3    -0.643421580275E+03    0.10459E-03   -0.57758E-05  6578   0.274E-02    0.176E-02
RMM:   4    -0.643421578980E+03    0.12943E-05   -0.13613E-05  5387   0.142E-02
  35 F= -.64342158E+03 E0= -.64336790E+03  d E =-.181278E-03
 curvature:  -0.60 expect dE=-0.526E-04 dE for cont linesearch -0.144E-05
 ZBRENT: increasing intervall
 opt :   1.3971  next Energy=  -643.421578 (dE=-0.180E-03)
 bond charge predicted
       N       E                     dE             d eps       ncg     rms          rms(c)
DAV:   1    -0.643421559652E+03    0.20623E-04   -0.42651E-03 10584   0.236E-01    0.359E-02
RMM:   2    -0.643421626328E+03   -0.66677E-04   -0.52573E-04 11108   0.705E-02    0.704E-02
RMM:   3    -0.643421587759E+03    0.38570E-04   -0.10136E-04  8053   0.321E-02    0.231E-02
RMM:   4    -0.643421588004E+03   -0.24551E-06   -0.24523E-05  5976   0.194E-02
  36 F= -.64342159E+03 E0= -.64336791E+03  d E =-.190302E-03
 curvature:   0.34 expect dE= 0.394E-04 dE for cont linesearch  0.121E-06
 trial: gam= 0.51375 g(F)=  0.999E-04 g(S)=  0.165E-04 ort =-0.106E-04 (trialstep = 0.108E+01)
 search vector abs. value=  0.188E-03
 bond charge predicted
       N       E                     dE             d eps       ncg     rms          rms(c)
DAV:   1    -0.643421169328E+03    0.41843E-03   -0.42859E-02  9576   0.783E-01    0.544E-02
RMM:   2    -0.643421616704E+03   -0.44738E-03   -0.50488E-03 12609   0.213E-01    0.528E-02
RMM:   3    -0.643421697627E+03   -0.80923E-04   -0.76087E-04 11526   0.734E-02    0.680E-02
RMM:   4    -0.643421673235E+03    0.24392E-04   -0.11868E-04  9032   0.312E-02    0.252E-02
RMM:   5    -0.643421671519E+03    0.17159E-05   -0.51451E-05  6638   0.193E-02
  37 F= -.64342167E+03 E0= -.64336806E+03  d E =-.835145E-04
 trial-energy change:   -0.000084  1 .order   -0.000070   -0.000120   -0.000020
 step:   1.2997(harm=  1.2997)  dis= 0.00092  next Energy=  -643.421660 (dE=-0.721E-04)
 reached required accuracy - stopping structural energy minimisation
