HECN                                    
           1
    11.240000    0.000000    0.000000
     0.000000   11.240000    0.000000
     0.000000    0.000000   11.240000
   Ti   Mo   V    N    C    Nb   Ta
     7     6     7    13    19     6     6
Direct configuration=     1
   0.00000000  0.00000000  0.00000000
   0.25000000  0.00000000  0.25000000
   0.25000000  0.50000000  0.25000000
   0.50000000  0.50000000  0.00000000
   0.50000000  0.25000000  0.75000004
   0.00000000  0.50000000  0.50000000
   0.50000000  0.75000004  0.75000004
   0.00000000  0.25000000  0.25000000
   0.75000004  0.75000004  0.00000000
   0.00000000  0.25000000  0.75000004
   0.75000004  0.25000000  0.50000000
   0.00000000  0.75000004  0.75000004
   0.25000000  0.50000000  0.75000004
   0.25000000  0.25000000  0.00000000
   0.50000000  0.25000000  0.25000000
   0.75000004  0.00000000  0.25000000
   0.75000004  0.25000000  0.00000000
   0.25000000  0.75000004  0.00000000
   0.25000000  0.25000000  0.50000000
   0.25000000  0.75000004  0.50000000
   0.25000000  0.25000000  0.25000000
   0.25000000  0.00000000  0.00000000
   0.00000000  0.25000000  0.00000000
   0.75000004  0.25000000  0.25000000
   0.75000004  0.00000000  0.00000000
   0.50000000  0.00000000  0.25000000
   0.00000000  0.50000000  0.25000000
   0.50000000  0.75000004  0.00000000
   0.00000000  0.00000000  0.75000004
   0.75000004  0.25000000  0.75000004
   0.75000004  0.00000000  0.50000000
   0.50000000  0.25000000  0.50000000
   0.50000000  0.00000000  0.75000004
   0.00000000  0.00000000  0.25000000
   0.50000000  0.25000000  0.00000000
   0.25000000  0.75000004  0.25000000
   0.25000000  0.50000000  0.00000000
   0.00000000  0.75000004  0.00000000
   0.75000004  0.75000004  0.25000000
   0.75000004  0.50000000  0.00000000
   0.50000000  0.50000000  0.25000000
   0.25000000  0.25000000  0.75000004
   0.25000000  0.00000000  0.50000000
   0.00000000  0.25000000  0.50000000
   0.25000000  0.75000004  0.75000004
   0.25000000  0.50000000  0.50000000
   0.00000000  0.75000004  0.50000000
   0.00000000  0.50000000  0.75000004
   0.75000004  0.75000004  0.75000004
   0.75000004  0.50000000  0.50000000
   0.50000000  0.75000004  0.50000000
   0.50000000  0.50000000  0.75000004
   0.50000000  0.00000000  0.00000000
   0.00000000  0.50000000  0.00000000
   0.50000000  0.75000004  0.25000000
   0.25000000  0.00000000  0.75000004
   0.50000000  0.00000000  0.50000000
   0.75000004  0.00000000  0.75000004
   0.00000000  0.75000004  0.25000000
   0.75000004  0.50000000  0.25000000
   0.00000000  0.00000000  0.50000000
   0.50000000  0.50000000  0.50000000
   0.75000004  0.50000000  0.75000004
   0.75000004  0.75000004  0.50000000
HECN                                    
           1
     8.106830    0.000940    0.000782
     0.000940    8.107179    0.000715
     0.000782    0.000715    8.105452
   Ti   Mo   V    N    C    Nb   Ta
     7     6     7    13    19     6     6
Direct configuration=     2
   0.99976990  0.99928431  0.00109938
   0.24921700  0.99957314  0.25097553
   0.25124409  0.50049024  0.24995156
   0.49990854  0.49886065  0.99997885
   0.49893315  0.25090797  0.75101942
   0.00029893  0.49954702  0.50133358
   0.49975820  0.74915538  0.74914152
   0.99993617  0.24739902  0.25199350
   0.75210301  0.74838062  0.99987152
   0.00209344  0.25175012  0.74793752
   0.75232705  0.25190332  0.49986057
   0.00009792  0.74826962  0.75035517
   0.24973710  0.50011237  0.75020395
   0.25087508  0.25128386  0.99877301
   0.49999726  0.25105485  0.24862888
   0.75111869  0.99871001  0.24976549
   0.74894071  0.25116079  0.00013982
   0.24848331  0.74859241  0.99974554
   0.24842461  0.25011744  0.50127343
   0.24984454  0.74994116  0.50030815
   0.24896857  0.24985798  0.24991578
   0.25124200  0.00008176  0.99903794
   0.99997426  0.25100428  0.00009148
   0.75088381  0.25277045  0.25097212
   0.74878751  0.99958764  0.99815153
   0.49945125  0.99850339  0.24985240
   0.99778701  0.50204380  0.24894100
   0.50054907  0.75137082  0.00090961
   0.99983698  0.00012558  0.74803079
   0.74987889  0.25081094  0.74919965
   0.75123812  0.99810401  0.50154092
   0.50077928  0.25107119  0.50067985
   0.50021330  0.00011465  0.75012308
   0.00014280  0.99851402  0.25235093
   0.50005567  0.24808316  0.99974596
   0.24898273  0.75002831  0.24986601
   0.24839248  0.49991219  0.99935424
   0.99903846  0.74875287  0.00156905
   0.75090602  0.74755256  0.25154495
   0.75136304  0.50080264  0.00021410
   0.50258019  0.50143192  0.25230713
   0.24890572  0.24932623  0.75004760
   0.24886055  0.00015438  0.50130868
   0.99878968  0.24763198  0.49995297
   0.24929328  0.75069494  0.75011183
   0.25238731  0.49984630  0.50059727
   0.99745749  0.75232129  0.49841366
   0.99839846  0.49987785  0.75141524
   0.75047414  0.74924496  0.74842845
   0.74802449  0.50142550  0.49980584
   0.50254876  0.74910928  0.49885129
   0.50184214  0.49985301  0.74765323
   0.50042826  0.00200857  0.00023992
   0.00020614  0.50094799  0.99798575
   0.50014374  0.74902326  0.25113804
   0.24975748  0.99990886  0.74851976
   0.49805671  0.99846842  0.49974691
   0.75034016  0.99820555  0.75045211
   0.00007593  0.75215123  0.24973607
   0.74831170  0.50095030  0.24960212
   0.00182573  0.00061173  0.49876440
   0.49947597  0.50118902  0.50002455
   0.75000134  0.50153928  0.75035455
   0.75023536  0.74849224  0.50009553
HECN                                    
           1
     8.803608    0.000731    0.000608
     0.000731    8.803879    0.000556
     0.000608    0.000556    8.802536
   Ti   Mo   V    N    C    Nb   Ta
     7     6     7    13    19     6     6
Direct configuration=     3
   0.99984086  0.99950500  0.00076031
   0.24945844  0.99970475  0.25067465
   0.25086050  0.50033913  0.24996655
   0.49993670  0.49921193  0.99998534
   0.49926216  0.25062801  0.75070504
   0.00020678  0.49968673  0.50092232
   0.49983270  0.74941578  0.74940625
   0.99995582  0.24820102  0.25137866
   0.75145453  0.74888000  0.99991116
   0.00144795  0.25121053  0.74857369
   0.75160961  0.25131656  0.49990369
   0.00006767  0.74880317  0.75024561
   0.24981817  0.50007772  0.75014106
   0.25060527  0.25088801  0.99915147
   0.49999810  0.25072958  0.24905175
   0.75077371  0.99910778  0.24983781
   0.74926739  0.25080286  0.00009670
   0.24895090  0.74902636  0.99982393
   0.24891040  0.25008121  0.50088067
   0.24989248  0.74995932  0.50021311
   0.24928659  0.24990173  0.24994172
   0.25085902  0.00005657  0.99933467
   0.99998223  0.25069464  0.00006329
   0.75061144  0.25191631  0.25067243
   0.74916131  0.99971469  0.99872153
   0.49962039  0.99896481  0.24989786
   0.99846940  0.50141354  0.24926757
   0.50037985  0.75094822  0.00062915
   0.99988719  0.00008680  0.74863809
   0.74991625  0.25056088  0.74944650
   0.75085635  0.99868867  0.50106570
   0.50053906  0.25074096  0.50047024
   0.50014754  0.00007931  0.75008514
   0.00009878  0.99897226  0.25162589
   0.50003843  0.24867416  0.99982426
   0.24929639  0.75001956  0.24990731
   0.24888812  0.49993919  0.99955333
   0.99933494  0.74913741  0.00108511
   0.75062663  0.74830725  0.25106847
   0.75094281  0.50055522  0.00014813
   0.50178474  0.50099058  0.25159575
   0.24924310  0.24953393  0.75003289
   0.24921193  0.00010678  0.50090507
   0.99916278  0.24836206  0.49996737
   0.24951122  0.75048066  0.75007735
   0.25165122  0.49989379  0.50041315
   0.99824148  0.75160546  0.49890286
   0.99889232  0.49991550  0.75097876
   0.75032788  0.74947775  0.74891310
   0.74863367  0.50098591  0.49986570
   0.50176282  0.74938399  0.49920559
   0.50127407  0.49989833  0.74837701
   0.50029629  0.00138930  0.00016600
   0.00014256  0.50065566  0.99860696
   0.50009942  0.74932446  0.25078706
   0.24983221  0.99993691  0.74897626
   0.49865584  0.99894057  0.49982486
   0.75023524  0.99875885  0.75031266
   0.00005259  0.75148796  0.24981753
   0.74883230  0.50065723  0.24972480
   0.00126278  0.00042315  0.49914552
   0.49963759  0.50082240  0.50001700
   0.75000100  0.50106469  0.75024527
   0.75016275  0.74895714  0.50006604
HECN                                    
           1
     8.745561    0.000748    0.000623
     0.000748    8.745838    0.000570
     0.000623    0.000570    8.744464
   Ti   Mo   V    N    C    Nb   Ta
     7     6     7    13    19     6     6
Direct configuration=     4
   0.99983541  0.99948807  0.00078632
   0.24943992  0.99969465  0.25069773
   0.25088993  0.50035072  0.24996540
   0.49993453  0.49918498  0.99998484
   0.49923692  0.25064949  0.75072916
   0.00021385  0.49967602  0.50095386
   0.49982698  0.74939580  0.74938594
   0.99995431  0.24813949  0.25142582
   0.75150427  0.74884169  0.99990812
   0.00149747  0.25125193  0.74852489
   0.75166465  0.25136158  0.49990038
   0.00006999  0.74876223  0.75025401
   0.24981195  0.50008038  0.75014588
   0.25062597  0.25091838  0.99912244
   0.49999803  0.25075453  0.24901931
   0.75080018  0.99907726  0.24983226
   0.74924233  0.25083032  0.00010001
   0.24891503  0.74899306  0.99981792
   0.24887314  0.25008399  0.50091080
   0.24988880  0.74995792  0.50022040
   0.24926220  0.24989837  0.24993973
   0.25088840  0.00005850  0.99931190
   0.99998162  0.25071839  0.00006546
   0.75063234  0.25198184  0.25069542
   0.74913263  0.99970494  0.99867780
   0.49960742  0.99892941  0.24989437
   0.99841705  0.50146189  0.24924252
   0.50039283  0.75098064  0.00065067
   0.99988334  0.00008977  0.74859150
   0.74991339  0.25058007  0.74942757
   0.75088564  0.99864382  0.50110216
   0.50055749  0.25076629  0.50048632
   0.50015258  0.00008203  0.75008805
   0.00010216  0.99893710  0.25168151
   0.50003975  0.24862882  0.99981825
   0.24927233  0.75002023  0.24990414
   0.24885009  0.49993711  0.99953806
   0.99931220  0.74910791  0.00112223
   0.75064807  0.74824936  0.25110502
   0.75097505  0.50057420  0.00015319
   0.50184577  0.50102444  0.25165032
   0.24921722  0.24951800  0.75003401
   0.24918498  0.00011043  0.50093603
   0.99913416  0.24830605  0.49996627
   0.24949450  0.75049710  0.75008000
   0.25170769  0.49989015  0.50042727
   0.99818133  0.75166037  0.49886533
   0.99885443  0.49991261  0.75101224
   0.75033910  0.74945989  0.74887593
   0.74858694  0.50101963  0.49986111
   0.50182311  0.74936291  0.49917841
   0.50131765  0.49989486  0.74832149
   0.50030642  0.00143681  0.00017167
   0.00014743  0.50067808  0.99855930
   0.50010282  0.74930135  0.25081398
   0.24982648  0.99993476  0.74894124
   0.49860987  0.99890435  0.49981888
   0.75024329  0.99871640  0.75032336
   0.00005438  0.75153885  0.24981128
   0.74879237  0.50067971  0.24971538
   0.00130596  0.00043762  0.49911628
   0.49962520  0.50085052  0.50001758
   0.75000103  0.50110110  0.75025365
   0.75016832  0.74892148  0.50006830
HECN                                    
           1
     8.725394    0.000754    0.000628
     0.000754    8.725674    0.000574
     0.000628    0.000574    8.724288
   Ti   Mo   V    N    C    Nb   Ta
     7     6     7    13    19     6     6
Direct configuration=     5
   0.99983351  0.99948215  0.00079542
   0.24943344  0.99969112  0.25070581
   0.25090022  0.50035478  0.24996500
   0.49993378  0.49917556  0.99998466
   0.49922810  0.25065700  0.75073759
   0.00021632  0.49967227  0.50096490
   0.49982498  0.74938881  0.74937884
   0.99995378  0.24811798  0.25144231
   0.75152167  0.74882829  0.99990706
   0.00151479  0.25126640  0.74850783
   0.75168390  0.25137732  0.49989923
   0.00007080  0.74874792  0.75025695
   0.24980978  0.50008131  0.75014757
   0.25063321  0.25092900  0.99911228
   0.49999801  0.25076325  0.24900796
   0.75080943  0.99906659  0.24983032
   0.74923356  0.25083992  0.00010116
   0.24890248  0.74898142  0.99981581
   0.24886010  0.25008496  0.50092134
   0.24988751  0.74995744  0.50022295
   0.24925366  0.24989720  0.24993903
   0.25089868  0.00005918  0.99930394
   0.99998141  0.25072670  0.00006621
   0.75063965  0.25200475  0.25070346
   0.74912260  0.99970153  0.99866251
   0.49960288  0.99891703  0.24989315
   0.99839874  0.50147880  0.24923376
   0.50039737  0.75099198  0.00065819
   0.99988199  0.00009081  0.74857521
   0.74991238  0.25058678  0.74942094
   0.75089588  0.99862814  0.50111490
   0.50056393  0.25077515  0.50049195
   0.50015435  0.00008297  0.75008907
   0.00010334  0.99892481  0.25170096
   0.50004022  0.24861297  0.99981615
   0.24926391  0.75002046  0.24990303
   0.24883680  0.49993639  0.99953272
   0.99930424  0.74909760  0.00113521
   0.75065556  0.74822911  0.25111780
   0.75098633  0.50058084  0.00015496
   0.50186711  0.50103629  0.25166941
   0.24920817  0.24951242  0.75003441
   0.24917555  0.00011171  0.50094686
   0.99912415  0.24828646  0.49996588
   0.24948865  0.75050285  0.75008092
   0.25172744  0.49988888  0.50043221
   0.99816030  0.75167958  0.49885220
   0.99884118  0.49991160  0.75102395
   0.75034303  0.74945364  0.74886292
   0.74857059  0.50103143  0.49985950
   0.50184420  0.74935554  0.49916891
   0.50133289  0.49989364  0.74830208
   0.50030996  0.00145343  0.00017365
   0.00014914  0.50068592  0.99854264
   0.50010401  0.74929327  0.25082339
   0.24982447  0.99993401  0.74892899
   0.49859380  0.99889168  0.49981679
   0.75024610  0.99870156  0.75032710
   0.00005501  0.75155664  0.24980910
   0.74877840  0.50068757  0.24971209
   0.00132107  0.00044268  0.49910606
   0.49962086  0.50086036  0.50001778
   0.75000104  0.50111384  0.75025658
   0.75017027  0.74890901  0.50006909
HECN                                    
           1
     8.707762    0.001129   -0.000014
     0.001129    8.707640    0.000486
    -0.000013    0.000486    8.700473
   Ti   Mo   V    N    C    Nb   Ta
     7     6     7    13    19     6     6
Direct configuration=     6
   0.99983816  0.00073900  0.00279060
   0.24850879  0.00133635  0.25083698
   0.25294911  0.49877043  0.24979901
   0.49864847  0.49625254  0.00029886
   0.49714503  0.25111844  0.75374867
   0.00257136  0.49781792  0.50176034
   0.49837584  0.74919683  0.74923584
   0.00217434  0.24144188  0.25391827
   0.75533453  0.74681904  0.99985581
   0.00621743  0.25380621  0.74554932
   0.75535365  0.25397312  0.49818124
   0.00103677  0.74639704  0.75193038
   0.25125747  0.49996888  0.75090079
   0.25354360  0.25347259  0.99746436
   0.49812442  0.25198057  0.24485100
   0.75299372  0.99822965  0.24796703
   0.74598294  0.25252877  0.00136395
   0.24559703  0.74600778  0.99998939
   0.24588170  0.24986973  0.50273905
   0.24979833  0.75044785  0.50005102
   0.25244667  0.24989353  0.24978698
   0.24707858  0.00031507  0.00435099
   0.00044751  0.24609796  0.00053304
   0.74686968  0.24815509  0.24715580
   0.75348139  0.00418642  0.00397442
   0.49986503  0.00433653  0.24944967
   0.00144649  0.50197656  0.25339638
   0.49576832  0.74721005  0.99576574
   0.00016390  0.00021797  0.75199827
   0.74573164  0.25185238  0.75315917
   0.75253128  0.99803520  0.49572975
   0.49643693  0.25205801  0.50033381
   0.49996059  0.00037997  0.75042677
   0.99878057  0.00061710  0.24752081
   0.49974034  0.25253190  0.00131064
   0.24890097  0.74979867  0.24961762
   0.25290521  0.49972555  0.00199437
   0.00406165  0.75337758  0.99991970
   0.75104165  0.75324474  0.25002617
   0.74652144  0.49647519  0.00033182
   0.49793730  0.49505760  0.24766517
   0.25083670  0.25194356  0.75005093
   0.24856084  0.00029106  0.49603194
   0.00351987  0.25267564  0.49987288
   0.25214732  0.74801709  0.75022854
   0.24761782  0.49965593  0.49805489
   0.00367282  0.74816627  0.49981588
   0.00055203  0.49989214  0.74629247
   0.74686217  0.74909266  0.74996948
   0.75280514  0.49960298  0.49964090
   0.49651322  0.74872202  0.50390592
   0.49999254  0.49962287  0.75222367
   0.50022197  0.00665594  0.00174766
   0.00228479  0.49958846  0.99713794
   0.49780191  0.74898015  0.25010796
   0.25043445  0.99987557  0.74885378
   0.49438477  0.99932940  0.49861792
   0.75002444  0.99827264  0.75365170
   0.00314482  0.75572344  0.24901856
   0.74691385  0.49813577  0.24779590
   0.00471542  0.00267668  0.49730928
   0.49566951  0.49914514  0.49970663
   0.74764120  0.50009629  0.75216171
   0.75023324  0.74812132  0.50012514
HECN                                    
           1
     8.700443    0.001284   -0.000280
     0.001284    8.700154    0.000449
    -0.000279    0.000449    8.690588
   Ti   Mo   V    N    C    Nb   Ta
     7     6     7    13    19     6     6
Direct configuration=     7
   0.99984014  0.00126180  0.00362107
   0.24812417  0.00202071  0.25089155
   0.25380134  0.49811137  0.24972997
   0.49811392  0.49503671  0.00042959
   0.49627869  0.25131043  0.75500193
   0.00355097  0.49704654  0.50209149
   0.49777308  0.74911699  0.74917627
   0.00309816  0.23866487  0.25494888
   0.75692048  0.74598321  0.99983459
   0.00817330  0.25486256  0.74431804
   0.75687995  0.25505279  0.49746628
   0.00143865  0.74541917  0.75262694
   0.25185965  0.49992209  0.75121435
   0.25475405  0.25453056  0.99677853
   0.49734496  0.25248694  0.24312068
   0.75390221  0.99788147  0.24719152
   0.74463089  0.25323133  0.00188948
   0.24422222  0.74477092  0.00006152
   0.24464292  0.24978026  0.50349555
   0.24976122  0.75065185  0.49997946
   0.25377476  0.24989195  0.24972379
   0.24548980  0.00042160  0.00645163
   0.00064148  0.24417259  0.00072735
   0.74530156  0.24655384  0.24567901
   0.75529446  0.00605190  0.00618557
   0.49997395  0.00659081  0.24926511
   0.00271429  0.50218357  0.25512911
   0.49384284  0.74563699  0.99372917
   0.00028125  0.00027087  0.75342308
   0.74399279  0.25237890  0.75471503
   0.75321136  0.99778851  0.49348830
   0.49472032  0.25259170  0.50026786
   0.49988001  0.00050351  0.75056733
   0.99823022  0.00132103  0.24578085
   0.49961559  0.25416202  0.00193271
   0.24875000  0.74970642  0.24949881
   0.25459750  0.49963779  0.00301912
   0.00604033  0.75515778  0.99941392
   0.75120212  0.75533101  0.24957183
   0.74466440  0.49476749  0.00040528
   0.49630272  0.49257077  0.24599833
   0.25151403  0.25295478  0.75005786
   0.24830501  0.00036566  0.49398616
   0.00534814  0.25450127  0.49983432
   0.25325322  0.74698307  0.75029005
   0.24590840  0.49955910  0.49706525
   0.00596578  0.74670479  0.50021716
   0.00126350  0.49988399  0.74432312
   0.74541438  0.74894257  0.75042996
   0.75456647  0.49900872  0.49955003
   0.49429602  0.74845862  0.50587746
   0.49943517  0.49951028  0.75385593
   0.50018532  0.00881998  0.00240284
   0.00317306  0.49913191  0.99655331
   0.49684436  0.74884994  0.24981010
   0.25068817  0.99985125  0.74882249
   0.49263402  0.99951155  0.49811878
   0.74993236  0.99809424  0.75503551
   0.00442990  0.75745660  0.24868963
   0.74613830  0.49707436  0.24699825
   0.00612716  0.00360586  0.49656151
   0.49402601  0.49843175  0.49957699
   0.74665973  0.49967308  0.75295461
   0.75025944  0.74779368  0.50014846
HECN                                    
           1
     8.741572    0.003880    0.007530
     0.003878    8.754310    0.005285
     0.007521    0.005279    8.741801
   Ti   Mo   V    N    C    Nb   Ta
     7     6     7    13    19     6     6
Direct configuration=     8
   0.99974957  0.00355125  0.00407997
   0.24763961  0.00358760  0.24993363
   0.25349547  0.49689184  0.24937947
   0.49647202  0.49463271  0.00072394
   0.49512066  0.25158265  0.75726965
   0.00496672  0.49797672  0.50120078
   0.49659095  0.74871666  0.74961015
   0.00337297  0.23672121  0.25517601
   0.76119698  0.74513693  0.99927818
   0.01168225  0.25757494  0.74386558
   0.75994186  0.25593368  0.49551275
   0.00146365  0.74274510  0.75329150
   0.25303086  0.49992604  0.75210642
   0.25753523  0.25620402  0.99558654
   0.49513611  0.25406347  0.23859869
   0.75626661  0.99808017  0.24439912
   0.74034855  0.25366383  0.00354215
   0.24175589  0.74139017  0.00031112
   0.24319859  0.24896291  0.50605525
   0.25104420  0.75136057  0.49931146
   0.25446676  0.24961146  0.24983281
   0.24581512  0.00139160  0.00684507
   0.00128003  0.24405959  0.00092487
   0.74423734  0.24491877  0.24524047
   0.75575675  0.00773711  0.00785674
   0.50013355  0.00854564  0.24981291
   0.00239520  0.50166629  0.25429728
   0.49262493  0.74633145  0.99295534
   0.99970871  0.00071326  0.75365238
   0.74234816  0.25150347  0.75514321
   0.75325214  0.99774514  0.49279335
   0.49376593  0.25239459  0.50072189
   0.50019810  0.00126777  0.75055156
   0.99837862  0.99997856  0.24664922
   0.49904589  0.25528215  0.00189510
   0.25005821  0.74964547  0.24909574
   0.25374964  0.49938725  0.00354938
   0.00754475  0.75436827  0.99915672
   0.75095496  0.75546863  0.24917679
   0.74577192  0.49428005  0.00086018
   0.49645765  0.49228429  0.24682990
   0.25191946  0.25243499  0.74988765
   0.24864854  0.00068344  0.49424468
   0.00695299  0.25442066  0.49984300
   0.25297535  0.74734773  0.75055428
   0.24651967  0.49931466  0.49690005
   0.00647668  0.74789895  0.50098128
   0.00071761  0.49987170  0.74478841
   0.74479099  0.74909421  0.75065260
   0.75331617  0.49974471  0.49925604
   0.49371135  0.74830967  0.50550231
   0.49881581  0.49895661  0.75298911
   0.50090541  0.00963222  0.00378185
   0.00368882  0.49912125  0.99588839
   0.49545989  0.74758675  0.25022374
   0.25057467  0.99945659  0.74847185
   0.49106229  0.99844465  0.49704100
   0.74993994  0.99806040  0.75738170
   0.00454099  0.75798965  0.24860885
   0.74556383  0.49675324  0.24776825
   0.00641881  0.00371251  0.49640767
   0.49383283  0.49870216  0.49938662
   0.74566229  0.49900606  0.75243664
   0.74955316  0.74617456  0.49993145
HECN                                    
           1
     8.744582    0.004070    0.008101
     0.004068    8.758273    0.005639
     0.008092    0.005633    8.745548
   Ti   Mo   V    N    C    Nb   Ta
     7     6     7    13    19     6     6
Direct configuration=     9
   0.99974289  0.00371773  0.00411327
   0.24760434  0.00370161  0.24986391
   0.25347324  0.49680317  0.24935404
   0.49635243  0.49460336  0.00074548
   0.49503616  0.25160238  0.75743469
   0.00506987  0.49804437  0.50113585
   0.49650483  0.74868756  0.74964181
   0.00339301  0.23657984  0.25519259
   0.76150852  0.74507531  0.99923745
   0.01193779  0.25777215  0.74383233
   0.76016498  0.25599776  0.49537039
   0.00146548  0.74255060  0.75333996
   0.25311611  0.49992627  0.75217125
   0.25773784  0.25632571  0.99549957
   0.49497549  0.25417835  0.23826979
   0.75643900  0.99809469  0.24419581
   0.74003653  0.25369531  0.00366264
   0.24157631  0.74114435  0.00032958
   0.24309324  0.24890340  0.50624160
   0.25113768  0.75141211  0.49926275
   0.25451716  0.24959104  0.24984071
   0.24583877  0.00146212  0.00687363
   0.00132653  0.24405135  0.00093920
   0.74415989  0.24479990  0.24520870
   0.75579028  0.00785960  0.00797822
   0.50014509  0.00868778  0.24985268
   0.00237203  0.50162871  0.25423680
   0.49253626  0.74638201  0.99289910
   0.99966699  0.00074543  0.75366908
   0.74222836  0.25143982  0.75517450
   0.75325515  0.99774201  0.49274280
   0.49369639  0.25238026  0.50075499
   0.50022125  0.00132335  0.75055036
   0.99838940  0.99988088  0.24671244
   0.49900437  0.25536362  0.00189236
   0.25015352  0.74964103  0.24906633
   0.25368785  0.49936903  0.00358802
   0.00765436  0.75431083  0.99913794
   0.75093698  0.75547866  0.24914806
   0.74585256  0.49424455  0.00089322
   0.49646889  0.49226342  0.24689040
   0.25194902  0.25239718  0.74987526
   0.24867353  0.00070654  0.49426345
   0.00706988  0.25441476  0.49984353
   0.25295508  0.74737424  0.75057350
   0.24656421  0.49929687  0.49688801
   0.00651382  0.74798575  0.50103679
   0.00067782  0.49987080  0.74482230
   0.74474557  0.74910525  0.75066883
   0.75322511  0.49979828  0.49923471
   0.49366879  0.74829887  0.50547506
   0.49877077  0.49891639  0.75292611
   0.50095775  0.00969122  0.00388209
   0.00372643  0.49912049  0.99583998
   0.49535906  0.74749489  0.25025398
   0.25056643  0.99942790  0.74844637
   0.49094791  0.99836713  0.49696274
   0.74994034  0.99805784  0.75755238
   0.00454908  0.75802842  0.24860295
   0.74552194  0.49672987  0.24782431
   0.00644006  0.00372027  0.49639645
   0.49381877  0.49872184  0.49937278
   0.74558969  0.49895759  0.75239905
   0.74950176  0.74605683  0.49991577
HECN                                    
           1
     8.737402    0.004421    0.013013
     0.004420    8.751907    0.008604
     0.013002    0.008592    8.739143
   Ti   Mo   V    N    C    Nb   Ta
     7     6     7    13    19     6     6
Direct configuration=    10
   0.99971138  0.00516955  0.00443692
   0.24732119  0.00458605  0.24947643
   0.25329281  0.49610084  0.24918278
   0.49557861  0.49476010  0.00088573
   0.49437840  0.25166188  0.75874524
   0.00571299  0.49870981  0.50066112
   0.49587092  0.74857488  0.74975062
   0.00297062  0.23559817  0.25540440
   0.76434798  0.74454743  0.99875023
   0.01418330  0.25949813  0.74372226
   0.76240899  0.25675598  0.49369213
   0.00133784  0.74083046  0.75359167
   0.25357259  0.49992824  0.75271665
   0.25963704  0.25736463  0.99475132
   0.49372972  0.25534395  0.23532268
   0.75804415  0.99819943  0.24218097
   0.73697610  0.25388981  0.00494959
   0.24003534  0.73885314  0.00056655
   0.24218627  0.24820446  0.50813563
   0.25215862  0.75201521  0.49867718
   0.25461518  0.24937713  0.24984605
   0.24637273  0.00217425  0.00668647
   0.00175136  0.24430061  0.00104927
   0.74367630  0.24408565  0.24535115
   0.75585220  0.00855140  0.00853192
   0.50022190  0.00951443  0.25026818
   0.00193672  0.50125458  0.25355594
   0.49214980  0.74714456  0.99286071
   0.99920095  0.00111053  0.75356086
   0.74146110  0.25084521  0.75502439
   0.75316426  0.99775580  0.49285337
   0.49352723  0.25214657  0.50116255
   0.50042734  0.00177263  0.75049908
   0.99864901  0.99899120  0.24743009
   0.49861125  0.25584049  0.00164353
   0.25055362  0.74963681  0.24874427
   0.25300866  0.49919414  0.00373198
   0.00826448  0.75372253  0.99914322
   0.75080179  0.75520831  0.24890498
   0.74663190  0.49431862  0.00105646
   0.49669474  0.49246879  0.24749085
   0.25212244  0.25203298  0.74981194
   0.24869317  0.00090775  0.49461157
   0.00774220  0.25423529  0.49997541
   0.25250876  0.74762679  0.75078059
   0.24720453  0.49915805  0.49703002
   0.00636205  0.74887433  0.50136174
   0.00028974  0.49980559  0.74513611
   0.74462661  0.74915571  0.75072866
   0.75245374  0.50011020  0.49913234
   0.49375066  0.74819816  0.50504658
   0.49858223  0.49863144  0.75231146
   0.50136177  0.00984367  0.00460650
   0.00386526  0.49902983  0.99555014
   0.49472311  0.74674351  0.25053764
   0.25054593  0.99912344  0.74813238
   0.49018427  0.99759534  0.49633386
   0.74990190  0.99785382  0.75917201
   0.00469553  0.75808909  0.24873083
   0.74532072  0.49653165  0.24833100
   0.00657707  0.00362150  0.49647290
   0.49367397  0.49890890  0.49930197
   0.74489218  0.49854546  0.75203658
   0.74889546  0.74537178  0.49987301
HECN                                    
           1
     8.727137    0.004922    0.020036
     0.004922    8.742806    0.012844
     0.020023    0.012823    8.729985
   Ti   Mo   V    N    C    Nb   Ta
     7     6     7    13    19     6     6
Direct configuration=    11
   0.99966595  0.00724672  0.00489934
   0.24691626  0.00585175  0.24892180
   0.25303480  0.49509600  0.24893821
   0.49447116  0.49498435  0.00108696
   0.49343610  0.25174642  0.76062096
   0.00663363  0.49966215  0.49998100
   0.49496373  0.74841364  0.74990689
   0.00236607  0.23419348  0.25570828
   0.76841163  0.74379219  0.99805106
   0.01739657  0.26196767  0.74356211
   0.76562144  0.25784157  0.49128860
   0.00115509  0.73836909  0.75395278
   0.25422537  0.49993077  0.75349668
   0.26235531  0.25885141  0.99367864
   0.49194935  0.25701324  0.23110623
   0.76034270  0.99835018  0.23929669
   0.73259562  0.25416765  0.00679339
   0.23783018  0.73557475  0.00090798
   0.24088693  0.24720351  0.51084678
   0.25362000  0.75287837  0.49783821
   0.25475544  0.24907105  0.24985372
   0.24713694  0.00319325  0.00641790
   0.00235918  0.24465720  0.00120631
   0.74298423  0.24306363  0.24555571
   0.75594032  0.00954099  0.00932380
   0.50033142  0.01069702  0.25086225
   0.00131437  0.50071960  0.25258225
   0.49159678  0.74823569  0.99280574
   0.99853413  0.00163301  0.75340622
   0.74036332  0.24999453  0.75481051
   0.75303411  0.99777549  0.49301165
   0.49328486  0.25181202  0.50174597
   0.50072226  0.00241548  0.75042532
   0.99901996  0.99771784  0.24845716
   0.49804887  0.25652297  0.00128757
   0.25112642  0.74963091  0.24828312
   0.25203663  0.49894386  0.00393861
   0.00913757  0.75288073  0.99915058
   0.75060854  0.75482161  0.24855741
   0.74774699  0.49442448  0.00128936
   0.49701744  0.49276234  0.24834973
   0.25237068  0.25151190  0.74972138
   0.24872098  0.00119549  0.49510955
   0.00870419  0.25397838  0.50016364
   0.25186989  0.74798807  0.75107713
   0.24812072  0.49895932  0.49723277
   0.00614456  0.75014561  0.50182640
   0.99973416  0.49971214  0.74558548
   0.74445633  0.74922790  0.75081434
   0.75134997  0.50055661  0.49898634
   0.49386815  0.74805426  0.50443347
   0.49831293  0.49822402  0.75143227
   0.50193933  0.01006142  0.00564263
   0.00406415  0.49890023  0.99513535
   0.49381289  0.74566830  0.25094441
   0.25051685  0.99868795  0.74768328
   0.48909207  0.99649136  0.49543502
   0.74984559  0.99756112  0.76148960
   0.00490499  0.75817583  0.24891366
   0.74503239  0.49624780  0.24905627
   0.00677306  0.00348013  0.49658223
   0.49346682  0.49917659  0.49920069
   0.74389436  0.49795599  0.75151870
   0.74802792  0.74439163  0.49981264
HECN                                    
           1
     8.725594    0.004998    0.021092
     0.004998    8.741437    0.013482
     0.021079    0.013459    8.728608
   Ti   Mo   V    N    C    Nb   Ta