  64  64   0   0
  0.1129557E+02  0.8932500E-09  0.9055600E-09  0.8937200E-09  0.5000000E-15
  1.000000000000000E-004
  CAR 
 HECN                                    
     14.80661299    -59.72076999  301      8.55568962      1.00000000
    -59.721  0.0000E+00  0.0000E+00
    -59.472  0.0000E+00  0.0000E+00
    -59.224  0.0000E+00  0.0000E+00
    -58.975  0.0000E+00  0.0000E+00
    -58.727  0.0000E+00  0.0000E+00
    -58.479  0.0000E+00  0.0000E+00
    -58.230  0.0000E+00  0.0000E+00
    -57.982  0.0000E+00  0.0000E+00
    -57.733  0.0000E+00  0.0000E+00
    -57.485  0.0000E+00  0.0000E+00
    -57.237  0.0000E+00  0.0000E+00
    -56.988  0.0000E+00  0.0000E+00
    -56.740  0.3940E-09  0.9788E-10
    -56.491  0.1489E-02  0.3700E-03
    -56.243  0.2813E+00  0.7025E-01
    -55.994  0.1996E+00  0.1198E+00
    -55.746  0.6299E-03  0.1200E+00
    -55.498  0.9847E-10  0.1200E+00
    -55.249  0.0000E+00  0.1200E+00
    -55.001  0.0000E+00  0.1200E+00
    -54.752  0.0000E+00  0.1200E+00
    -54.504  0.0000E+00  0.1200E+00
    -54.255  0.0000E+00  0.1200E+00
    -54.007  0.0000E+00  0.1200E+00
    -53.759  0.0000E+00  0.1200E+00
    -53.510  0.0000E+00  0.1200E+00
    -53.262  0.0000E+00  0.1200E+00
    -53.013  0.0000E+00  0.1200E+00
    -52.765  0.0000E+00  0.1200E+00
    -52.516  0.0000E+00  0.1200E+00
    -52.268  0.0000E+00  0.1200E+00
    -52.020  0.0000E+00  0.1200E+00
    -51.771  0.0000E+00  0.1200E+00
    -51.523  0.0000E+00  0.1200E+00
    -51.274  0.0000E+00  0.1200E+00
    -51.026  0.0000E+00  0.1200E+00
    -50.777  0.0000E+00  0.1200E+00
    -50.529  0.0000E+00  0.1200E+00
    -50.281  0.0000E+00  0.1200E+00
    -50.032  0.0000E+00  0.1200E+00
    -49.784  0.0000E+00  0.1200E+00
    -49.535  0.3189E-14  0.1200E+00
    -49.287  0.4101E-05  0.1200E+00
    -49.039  0.6300E-01  0.1357E+00
    -48.790  0.2871E+00  0.2070E+00
    -48.542  0.1437E+00  0.2427E+00
    -48.293  0.6918E-01  0.2599E+00
    -48.045  0.5341E-03  0.2600E+00
    -47.796  0.5431E-06  0.2600E+00
    -47.548  0.1617E-01  0.2640E+00
    -47.300  0.9622E-01  0.2879E+00
    -47.051  0.1599E+00  0.3276E+00
    -46.803  0.1619E+00  0.3678E+00
    -46.554  0.4891E-01  0.3800E+00
    -46.306  0.2646E-04  0.3800E+00
    -46.057  0.1814E-12  0.3800E+00
    -45.809  0.0000E+00  0.3800E+00
    -45.561  0.0000E+00  0.3800E+00
    -45.312  0.0000E+00  0.3800E+00
    -45.064  0.0000E+00  0.3800E+00
    -44.815  0.0000E+00  0.3800E+00
    -44.567  0.0000E+00  0.3800E+00
    -44.318  0.0000E+00  0.3800E+00
    -44.070  0.0000E+00  0.3800E+00
    -43.822  0.0000E+00  0.3800E+00
    -43.573  0.0000E+00  0.3800E+00
    -43.325  0.0000E+00  0.3800E+00
    -43.076  0.0000E+00  0.3800E+00
    -42.828  0.0000E+00  0.3800E+00
    -42.579  0.0000E+00  0.3800E+00
    -42.331  0.0000E+00  0.3800E+00
    -42.083  0.0000E+00  0.3800E+00
    -41.834  0.0000E+00  0.3800E+00
    -41.586  0.0000E+00  0.3800E+00
    -41.337  0.0000E+00  0.3800E+00
    -41.089  0.0000E+00  0.3800E+00
    -40.840  0.1425E-07  0.3800E+00
    -40.592  0.4603E-02  0.3811E+00
    -40.344  0.7378E-01  0.3995E+00
    -40.095  0.4661E-01  0.4111E+00
    -39.847  0.2826E+00  0.4813E+00
    -39.598  0.1555E+00  0.5199E+00
    -39.350  0.4611E-03  0.5200E+00
    -39.102  0.5371E-10  0.5200E+00
    -38.853  0.0000E+00  0.5200E+00
    -38.605  0.0000E+00  0.5200E+00
    -38.356  0.0000E+00  0.5200E+00
    -38.108  0.0000E+00  0.5200E+00
    -37.859  0.0000E+00  0.5200E+00
    -37.611  0.0000E+00  0.5200E+00
    -37.363  0.0000E+00  0.5200E+00
    -37.114  0.0000E+00  0.5200E+00
    -36.866  0.0000E+00  0.5200E+00
    -36.617  0.0000E+00  0.5200E+00
    -36.369  0.0000E+00  0.5200E+00
    -36.120  0.0000E+00  0.5200E+00
    -35.872  0.8685E-15  0.5200E+00
    -35.624  0.1476E-05  0.5200E+00
    -35.375  0.2172E-01  0.5254E+00
    -35.127  0.2126E+00  0.5782E+00
    -34.878  0.1031E+01  0.8344E+00
    -34.630  0.1832E+00  0.8799E+00
    -34.381  0.2874E-03  0.8800E+00
    -34.133  0.1893E-10  0.8800E+00
    -33.885  0.0000E+00  0.8800E+00
    -33.636  0.0000E+00  0.8800E+00
    -33.388  0.0000E+00  0.8800E+00
    -33.139  0.0000E+00  0.8800E+00
    -32.891  0.0000E+00  0.8800E+00
    -32.642  0.0000E+00  0.8800E+00
    -32.394  0.0000E+00  0.8800E+00
    -32.146  0.0000E+00  0.8800E+00
    -31.897  0.0000E+00  0.8800E+00
    -31.649  0.0000E+00  0.8800E+00
    -31.400  0.0000E+00  0.8800E+00
    -31.152  0.0000E+00  0.8800E+00
    -30.904  0.1295E-14  0.8800E+00
    -30.655  0.2167E-05  0.8800E+00
    -30.407  0.5069E-01  0.8926E+00
    -30.158  0.9439E+00  0.1127E+01
    -29.910  0.4516E+00  0.1239E+01
    -29.661  0.2929E-02  0.1240E+01
    -29.413  0.3025E-08  0.1240E+01
    -29.165  0.0000E+00  0.1240E+01
    -28.916  0.0000E+00  0.1240E+01
    -28.668  0.0000E+00  0.1240E+01
    -28.419  0.0000E+00  0.1240E+01
    -28.171  0.0000E+00  0.1240E+01
    -27.922  0.0000E+00  0.1240E+01
    -27.674  0.0000E+00  0.1240E+01
    -27.426  0.0000E+00  0.1240E+01
    -27.177  0.0000E+00  0.1240E+01
    -26.929  0.0000E+00  0.1240E+01
    -26.680  0.0000E+00  0.1240E+01
    -26.432  0.0000E+00  0.1240E+01
    -26.183  0.0000E+00  0.1240E+01
    -25.935  0.3572E-10  0.1240E+01
    -25.687  0.3748E-03  0.1240E+01
    -25.438  0.1847E+00  0.1286E+01
    -25.190  0.8002E+00  0.1485E+01
    -24.941  0.4782E+00  0.1604E+01
    -24.693  0.2238E+00  0.1659E+01
    -24.444  0.3341E-02  0.1660E+01
    -24.196  0.2345E-08  0.1660E+01
    -23.948  0.3303E-03  0.1660E+01
    -23.699  0.1282E+00  0.1692E+01
    -23.451  0.1938E+00  0.1740E+01
    -23.202  0.5785E+00  0.1884E+01
    -22.954  0.3819E+00  0.1979E+01
    -22.706  0.1662E+00  0.2020E+01
    -22.457  0.3681E-03  0.2020E+01
    -22.209  0.2155E-10  0.2020E+01
    -21.960  0.0000E+00  0.2020E+01
    -21.712  0.0000E+00  0.2020E+01
    -21.463  0.0000E+00  0.2020E+01
    -21.215  0.0000E+00  0.2020E+01
    -20.967  0.0000E+00  0.2020E+01
    -20.718  0.0000E+00  0.2020E+01
    -20.470  0.0000E+00  0.2020E+01
    -20.221  0.0000E+00  0.2020E+01
    -19.973  0.0000E+00  0.2020E+01
    -19.724  0.0000E+00  0.2020E+01
    -19.476  0.4469E-17  0.2020E+01
    -19.228  0.7270E-07  0.2020E+01
    -18.979  0.9238E-02  0.2022E+01
    -18.731  0.2021E+00  0.2073E+01
    -18.482  0.2115E+00  0.2125E+01
    -18.234  0.7203E+00  0.2304E+01
    -17.985  0.4476E+00  0.2415E+01
    -17.737  0.9800E-01  0.2440E+01
    -17.489  0.1895E-02  0.2440E+01
    -17.240  0.1538E-08  0.2440E+01
    -16.992  0.0000E+00  0.2440E+01
    -16.743  0.0000E+00  0.2440E+01
    -16.495  0.0000E+00  0.2440E+01
    -16.246  0.0000E+00  0.2440E+01
    -15.998  0.0000E+00  0.2440E+01
    -15.750  0.0000E+00  0.2440E+01
    -15.501  0.0000E+00  0.2440E+01
    -15.253  0.0000E+00  0.2440E+01
    -15.004  0.0000E+00  0.2440E+01
    -14.756  0.0000E+00  0.2440E+01
    -14.507  0.0000E+00  0.2440E+01
    -14.259  0.0000E+00  0.2440E+01
    -14.011  0.0000E+00  0.2440E+01
    -13.762  0.0000E+00  0.2440E+01
    -13.514  0.0000E+00  0.2440E+01
    -13.265  0.0000E+00  0.2440E+01
    -13.017  0.0000E+00  0.2440E+01
    -12.769  0.0000E+00  0.2440E+01
    -12.520  0.0000E+00  0.2440E+01
    -12.272  0.0000E+00  0.2440E+01
    -12.023  0.0000E+00  0.2440E+01
    -11.775  0.0000E+00  0.2440E+01
    -11.526  0.0000E+00  0.2440E+01
    -11.278  0.0000E+00  0.2440E+01
    -11.030  0.0000E+00  0.2440E+01
    -10.781  0.0000E+00  0.2440E+01
    -10.533  0.0000E+00  0.2440E+01
    -10.284  0.0000E+00  0.2440E+01
    -10.036  0.0000E+00  0.2440E+01
     -9.787  0.0000E+00  0.2440E+01
     -9.539  0.0000E+00  0.2440E+01
     -9.291  0.0000E+00  0.2440E+01
     -9.042  0.0000E+00  0.2440E+01
     -8.794  0.0000E+00  0.2440E+01
     -8.545  0.0000E+00  0.2440E+01
     -8.297  0.0000E+00  0.2440E+01
     -8.048  0.3310E-18  0.2440E+01
     -7.800  0.4607E-08  0.2440E+01
     -7.552  0.8451E-03  0.2440E+01
     -7.303  0.5244E-01  0.2453E+01
     -7.055  0.4590E-01  0.2465E+01
     -6.806  0.1492E+00  0.2502E+01
     -6.558  0.9331E-01  0.2525E+01
     -6.309  0.1580E+00  0.2564E+01
     -6.061  0.2657E+00  0.2630E+01
     -5.813  0.1638E+00  0.2671E+01
     -5.564  0.1163E+00  0.2700E+01
     -5.316  0.1137E-02  0.2700E+01
     -5.067  0.4794E-09  0.2700E+01
     -4.819  0.0000E+00  0.2700E+01
     -4.571  0.0000E+00  0.2700E+01
     -4.322  0.3185E-15  0.2700E+01
     -4.074  0.2700E-06  0.2700E+01
     -3.825  0.3048E-02  0.2701E+01
     -3.577  0.5039E-01  0.2713E+01
     -3.328  0.4168E-01  0.2724E+01
     -3.080  0.9481E-01  0.2747E+01
     -2.832  0.1068E+00  0.2774E+01
     -2.583  0.1787E+00  0.2818E+01
     -2.335  0.2134E+00  0.2871E+01
     -2.086  0.2999E+00  0.2946E+01
     -1.838  0.2812E+00  0.3015E+01
     -1.589  0.1794E+00  0.3060E+01
     -1.341  0.6136E-01  0.3075E+01
     -1.093  0.1864E-01  0.3080E+01
     -0.844  0.2522E-03  0.3080E+01
     -0.596  0.8093E-09  0.3080E+01
     -0.347  0.0000E+00  0.3080E+01
     -0.099  0.0000E+00  0.3080E+01
      0.150  0.0000E+00  0.3080E+01
      0.398  0.0000E+00  0.3080E+01
      0.646  0.3714E-11  0.3080E+01
      0.895  0.2183E-04  0.3080E+01
      1.143  0.4729E-02  0.3081E+01
      1.392  0.3547E-01  0.3090E+01
      1.640  0.1084E+00  0.3117E+01
      1.889  0.1074E+00  0.3144E+01
      2.137  0.1699E+00  0.3186E+01
      2.385  0.2647E+00  0.3252E+01
      2.634  0.3252E+00  0.3332E+01
      2.882  0.2758E+00  0.3401E+01
      3.131  0.3724E+00  0.3493E+01
      3.379  0.3777E+00  0.3587E+01
      3.628  0.4086E+00  0.3689E+01
      3.876  0.4739E+00  0.3806E+01
      4.124  0.5146E+00  0.3934E+01
      4.373  0.5872E+00  0.4080E+01
      4.621  0.6349E+00  0.4238E+01
      4.870  0.6259E+00  0.4393E+01
      5.118  0.5923E+00  0.4541E+01
      5.366  0.4733E+00  0.4658E+01
      5.615  0.3788E+00  0.4752E+01
      5.863  0.3103E+00  0.4829E+01
      6.112  0.2903E+00  0.4901E+01
      6.360  0.1706E+00  0.4944E+01
      6.609  0.1617E+00  0.4984E+01
      6.857  0.6460E-01  0.5000E+01
      7.105  0.1061E+00  0.5026E+01
      7.354  0.1848E+00  0.5072E+01
      7.602  0.2068E+00  0.5124E+01
      7.851  0.2440E+00  0.5184E+01
      8.099  0.2176E+00  0.5238E+01
      8.348  0.2624E+00  0.5304E+01
      8.596  0.3157E+00  0.5382E+01
      8.844  0.3275E+00  0.5463E+01
      9.093  0.4019E+00  0.5563E+01
      9.341  0.4952E+00  0.5686E+01
      9.590  0.5393E+00  0.5820E+01
      9.838  0.5553E+00  0.5958E+01
     10.087  0.5888E+00  0.6104E+01
     10.335  0.5543E+00  0.6242E+01
     10.583  0.5094E+00  0.6369E+01
     10.832  0.5377E+00  0.6502E+01
     11.080  0.4917E+00  0.6624E+01
     11.329  0.3308E+00  0.6707E+01
     11.577  0.5402E-01  0.6720E+01
     11.826  0.2221E-03  0.6720E+01
     12.074  0.5276E-10  0.6720E+01
     12.322  0.0000E+00  0.6720E+01
     12.571  0.0000E+00  0.6720E+01
     12.819  0.0000E+00  0.6720E+01
     13.068  0.0000E+00  0.6720E+01
     13.316  0.0000E+00  0.6720E+01
     13.564  0.0000E+00  0.6720E+01
     13.813  0.0000E+00  0.6720E+01
     14.061  0.0000E+00  0.6720E+01
     14.310  0.0000E+00  0.6720E+01
     14.558  0.0000E+00  0.6720E+01
     14.807  0.0000E+00  0.6720E+01
