       N       E                     dE             d eps       ncg     rms          rms(c)
DAV:   1     0.761815362058E+04    0.76182E+04   -0.22220E+05  9672   0.154E+03
DAV:   2     0.601608452912E+03   -0.70165E+04   -0.68072E+04  9408   0.654E+02
DAV:   3    -0.594209693519E+03   -0.11958E+04   -0.11121E+04 15264   0.234E+02
DAV:   4    -0.763539328322E+03   -0.16933E+03   -0.16513E+03 16824   0.101E+02
DAV:   5    -0.785023707980E+03   -0.21484E+02   -0.21144E+02 18816   0.338E+01    0.830E+01
RMM:   6    -0.915898951859E+03   -0.13088E+03   -0.26991E+03 12808   0.133E+02    0.128E+02
RMM:   7    -0.638403342868E+03    0.27750E+03   -0.27496E+02 15051   0.436E+01    0.543E+01
RMM:   8    -0.628782784337E+03    0.96206E+01   -0.82157E+01 14847   0.204E+01    0.388E+01
RMM:   9    -0.616503941023E+03    0.12279E+02   -0.28883E+01 15211   0.142E+01    0.209E+01
RMM:  10    -0.617038466827E+03   -0.53453E+00   -0.16072E+01 15347   0.752E+00    0.217E+01
RMM:  11    -0.615382797546E+03    0.16557E+01   -0.67209E+00 14803   0.712E+00    0.150E+01
RMM:  12    -0.615542503984E+03   -0.15971E+00   -0.54912E+00 15103   0.457E+00    0.170E+01
RMM:  13    -0.614829719267E+03    0.71278E+00   -0.35273E+00 14915   0.462E+00    0.112E+01
RMM:  14    -0.615196583127E+03   -0.36686E+00   -0.34602E+00 14935   0.419E+00    0.163E+01
RMM:  15    -0.614533983720E+03    0.66260E+00   -0.17578E+00 14540   0.372E+00    0.691E+00
RMM:  16    -0.614591270367E+03   -0.57287E-01   -0.17150E+00 14761   0.255E+00    0.646E+00
RMM:  17    -0.614833276779E+03   -0.24201E+00   -0.73624E-01 14275   0.259E+00    0.108E+01
RMM:  18    -0.614490613219E+03    0.34266E+00   -0.83858E-01 14759   0.197E+00    0.403E+00
RMM:  19    -0.614424807525E+03    0.65806E-01   -0.48707E-01 15194   0.151E+00    0.288E+00
RMM:  20    -0.614438634385E+03   -0.13827E-01   -0.29437E-01 15506   0.102E+00    0.263E+00
RMM:  21    -0.614418413092E+03    0.20221E-01   -0.17343E-01 14532   0.785E-01    0.141E+00
RMM:  22    -0.614422233440E+03   -0.38203E-02   -0.12636E-01 15257   0.679E-01    0.133E+00
RMM:  23    -0.614413346975E+03    0.88865E-02   -0.82385E-02 14953   0.565E-01    0.642E-01
RMM:  24    -0.614413028019E+03    0.31896E-03   -0.55808E-02 14809   0.495E-01    0.407E-01
RMM:  25    -0.614414916795E+03   -0.18888E-02   -0.31728E-02 14526   0.359E-01    0.250E-01
RMM:  26    -0.614415842680E+03   -0.92589E-03   -0.18004E-02 14308   0.244E-01    0.151E-01
RMM:  27    -0.614416519766E+03   -0.67709E-03   -0.11303E-02 14360   0.167E-01    0.140E-01
RMM:  28    -0.614417015346E+03   -0.49558E-03   -0.72300E-03 13748   0.134E-01    0.100E-01
RMM:  29    -0.614417362106E+03   -0.34676E-03   -0.47745E-03 13180   0.108E-01    0.789E-02
RMM:  30    -0.614417574487E+03   -0.21238E-03   -0.31135E-03 12589   0.901E-02    0.401E-02
RMM:  31    -0.614417743351E+03   -0.16886E-03   -0.20803E-03 12091   0.705E-02    0.273E-02
RMM:  32    -0.614417865826E+03   -0.12248E-03   -0.14122E-03 11899   0.569E-02    0.164E-02
RMM:  33    -0.614417947549E+03   -0.81723E-04   -0.96335E-04 11782   0.474E-02    0.115E-02
RMM:  34    -0.614418002666E+03   -0.55116E-04   -0.66490E-04 11431   0.396E-02    0.598E-03
RMM:  35    -0.614418044717E+03   -0.42052E-04   -0.48288E-04 11439   0.333E-02    0.435E-03
RMM:  36    -0.614418073490E+03   -0.28773E-04   -0.33546E-04 11198   0.288E-02    0.350E-03
RMM:  37    -0.614418094153E+03   -0.20663E-04   -0.23701E-04 10900   0.238E-02    0.196E-03
RMM:  38    -0.614418108917E+03   -0.14764E-04   -0.17132E-04 10519   0.212E-02    0.160E-03
RMM:  39    -0.614418118730E+03   -0.98129E-05   -0.11794E-04 10149   0.182E-02    0.946E-04
RMM:  40    -0.614418125121E+03   -0.63906E-05   -0.81730E-05  9641   0.164E-02
   1 F= -.61441813E+03 E0= -.61432957E+03  d E =-.614418E+03
       N       E                     dE             d eps       ncg     rms          rms(c)
DAV:   1    -0.779773042010E+03   -0.16535E+03   -0.50567E+03 12504   0.306E+02    0.934E+01
RMM:   2    -0.806832236361E+03   -0.27059E+02   -0.16838E+03 11207   0.154E+02    0.958E+01
RMM:   3    -0.662985362031E+03    0.14385E+03   -0.16134E+02 13957   0.398E+01    0.633E+01
RMM:   4    -0.631476474675E+03    0.31509E+02   -0.72696E+01 13670   0.272E+01    0.338E+01
RMM:   5    -0.611609849614E+03    0.19867E+02   -0.57362E+01 12632   0.223E+01    0.179E+01
RMM:   6    -0.615488032604E+03   -0.38782E+01   -0.19880E+01 12754   0.152E+01    0.285E+01
RMM:   7    -0.610040837297E+03    0.54472E+01   -0.92376E+00 14130   0.878E+00    0.110E+01
RMM:   8    -0.610092068337E+03   -0.51231E-01   -0.31385E+00 14731   0.486E+00    0.110E+01
RMM:   9    -0.609644227917E+03    0.44784E+00   -0.14312E+00 13946   0.375E+00    0.533E+00
RMM:  10    -0.609651874313E+03   -0.76464E-02   -0.84208E-01 15104   0.228E+00    0.412E+00
RMM:  11    -0.609728190143E+03   -0.76316E-01   -0.42758E-01 15572   0.182E+00    0.387E+00
RMM:  12    -0.609823797739E+03   -0.95608E-01   -0.53483E-01 16076   0.135E+00    0.248E+00
RMM:  13    -0.609939425804E+03   -0.11563E+00   -0.33142E-01 15295   0.151E+00    0.374E+00
RMM:  14    -0.609925718415E+03    0.13707E-01   -0.30882E-01 15188   0.136E+00    0.140E+00
RMM:  15    -0.609953349048E+03   -0.27631E-01   -0.24805E-01 16096   0.928E-01    0.119E+00
RMM:  16    -0.609971539778E+03   -0.18191E-01   -0.14010E-01 15712   0.815E-01    0.151E+00
RMM:  17    -0.609972379641E+03   -0.83986E-03   -0.97848E-02 16071   0.645E-01    0.709E-01
RMM:  18    -0.609979817068E+03   -0.74374E-02   -0.74276E-02 15627   0.470E-01    0.336E-01
RMM:  19    -0.609983127012E+03   -0.33099E-02   -0.44611E-02 15840   0.423E-01    0.288E-01
RMM:  20    -0.609984511832E+03   -0.13848E-02   -0.28947E-02 15602   0.306E-01    0.120E-01
RMM:  21    -0.609985646547E+03   -0.11347E-02   -0.15694E-02 15413   0.242E-01    0.103E-01
RMM:  22    -0.609986533645E+03   -0.88710E-03   -0.10974E-02 15001   0.163E-01    0.942E-02
RMM:  23    -0.609987006829E+03   -0.47318E-03   -0.61621E-03 14341   0.144E-01    0.469E-02
RMM:  24    -0.609987336540E+03   -0.32971E-03   -0.40569E-03 13739   0.108E-01    0.317E-02
RMM:  25    -0.609987527173E+03   -0.19063E-03   -0.24619E-03 12863   0.871E-02    0.249E-02
RMM:  26    -0.609987649154E+03   -0.12198E-03   -0.15835E-03 12520   0.683E-02    0.190E-02
RMM:  27    -0.609987726620E+03   -0.77467E-04   -0.98633E-04 12190   0.581E-02    0.872E-03
RMM:  28    -0.609987782643E+03   -0.56022E-04   -0.67822E-04 11872   0.444E-02    0.102E-02
RMM:  29    -0.609987817347E+03   -0.34705E-04   -0.42248E-04 11771   0.393E-02    0.446E-03
RMM:  30    -0.609987841303E+03   -0.23956E-04   -0.29033E-04 11443   0.313E-02    0.111E-02
RMM:  31    -0.609987856609E+03   -0.15306E-04   -0.18743E-04 11257   0.272E-02    0.328E-03
RMM:  32    -0.609987867223E+03   -0.10614E-04   -0.13444E-04 10768   0.237E-02    0.150E-02
RMM:  33    -0.609987873895E+03   -0.66717E-05   -0.86462E-05 10115   0.191E-02
   2 F= -.60998787E+03 E0= -.60991948E+03  d E =0.443025E+01
       N       E                     dE             d eps       ncg     rms          rms(c)
DAV:   1    -0.691929751219E+03   -0.81942E+02   -0.17765E+03 11856   0.173E+02    0.862E+01
RMM:   2    -0.930229561030E+03   -0.23830E+03   -0.62805E+02 13813   0.720E+01    0.988E+01
RMM:   3    -0.657675717194E+03    0.27255E+03   -0.21113E+02 13580   0.537E+01    0.446E+01
RMM:   4    -0.636218508248E+03    0.21457E+02   -0.81183E+01 12760   0.320E+01    0.418E+01
RMM:   5    -0.625669893505E+03    0.10549E+02   -0.25744E+01 14019   0.139E+01    0.298E+01
RMM:   6    -0.624285437361E+03    0.13845E+01   -0.15875E+01 14200   0.106E+01    0.258E+01
RMM:   7    -0.620155192952E+03    0.41302E+01   -0.12438E+01 13591   0.977E+00    0.169E+01
RMM:   8    -0.622103836577E+03   -0.19486E+01   -0.63449E+00 13725   0.667E+00    0.254E+01
RMM:   9    -0.618889048917E+03    0.32148E+01   -0.26215E+00 13356   0.531E+00    0.983E+00
RMM:  10    -0.618799046702E+03    0.90002E-01   -0.11335E+00 14040   0.313E+00    0.963E+00
RMM:  11    -0.618428059481E+03    0.37099E+00   -0.61666E-01 14642   0.233E+00    0.429E+00
RMM:  12    -0.618334496973E+03    0.93563E-01   -0.50177E-01 15434   0.160E+00    0.287E+00
RMM:  13    -0.618372073536E+03   -0.37577E-01   -0.24110E-01 15481   0.129E+00    0.356E+00
RMM:  14    -0.618353663886E+03    0.18410E-01   -0.22354E-01 15163   0.917E-01    0.158E+00
RMM:  15    -0.618365088470E+03   -0.11425E-01   -0.10169E-01 15569   0.753E-01    0.196E+00
RMM:  16    -0.618366017574E+03   -0.92910E-03   -0.81912E-02 15155   0.615E-01    0.135E+00
RMM:  17    -0.618372723815E+03   -0.67062E-02   -0.95739E-02 15245   0.621E-01    0.836E-01
RMM:  18    -0.618402486114E+03   -0.29762E-01   -0.12927E-01 15091   0.713E-01    0.976E-01
RMM:  19    -0.618405626179E+03   -0.31401E-02   -0.53745E-02 15156   0.521E-01    0.926E-01
RMM:  20    -0.618399511728E+03    0.61145E-02   -0.42340E-02 15132   0.346E-01    0.539E-01
RMM:  21    -0.618397502413E+03    0.20093E-02   -0.36164E-02 14840   0.384E-01    0.201E-01
RMM:  22    -0.618399135927E+03   -0.16335E-02   -0.20612E-02 14669   0.293E-01    0.163E-01
RMM:  23    -0.618400229057E+03   -0.10931E-02   -0.12072E-02 14462   0.211E-01    0.198E-01
RMM:  24    -0.618400271106E+03   -0.42049E-04   -0.70053E-03 14058   0.148E-01    0.114E-01
RMM:  25    -0.618400502894E+03   -0.23179E-03   -0.44391E-03 13615   0.114E-01    0.777E-02
RMM:  26    -0.618400685677E+03   -0.18278E-03   -0.27977E-03 13490   0.938E-02    0.320E-02
RMM:  27    -0.618400816094E+03   -0.13042E-03   -0.16482E-03 12428   0.764E-02    0.351E-02
RMM:  28    -0.618400889376E+03   -0.73282E-04   -0.10532E-03 11932   0.557E-02    0.186E-02
RMM:  29    -0.618400939784E+03   -0.50409E-04   -0.69058E-04 11696   0.450E-02    0.961E-03
RMM:  30    -0.618400975419E+03   -0.35634E-04   -0.44975E-04 11690   0.373E-02    0.828E-03
RMM:  31    -0.618400996737E+03   -0.21318E-04   -0.27959E-04 11364   0.302E-02    0.921E-03
RMM:  32    -0.618401009700E+03   -0.12963E-04   -0.18622E-04 11170   0.245E-02    0.250E-03
RMM:  33    -0.618401020414E+03   -0.10714E-04   -0.12273E-04 10766   0.217E-02    0.719E-03
RMM:  34    -0.618401025530E+03   -0.51163E-05   -0.80636E-05 10319   0.181E-02
   3 F= -.61840103E+03 E0= -.61832153E+03  d E =-.398290E+01
       N       E                     dE             d eps       ncg     rms          rms(c)
DAV:   1    -0.618441983898E+03   -0.40963E-01   -0.93960E-01 12864   0.402E+00    0.167E+00
RMM:   2    -0.618621571857E+03   -0.17959E+00   -0.44466E-01 12278   0.240E+00    0.560E+00
RMM:   3    -0.618478213674E+03    0.14336E+00   -0.12889E-01 12369   0.131E+00    0.356E+00
RMM:   4    -0.618435950082E+03    0.42264E-01   -0.42444E-02 12422   0.728E-01    0.237E+00
RMM:   5    -0.618412525704E+03    0.23424E-01   -0.20778E-02 13229   0.509E-01    0.845E-01
RMM:   6    -0.618416897229E+03   -0.43715E-02   -0.11382E-02 13521   0.304E-01    0.154E+00
RMM:   7    -0.618407517812E+03    0.93794E-02   -0.57920E-03 12193   0.272E-01    0.516E-01
RMM:   8    -0.618407536882E+03   -0.19070E-04   -0.50090E-03 13416   0.195E-01    0.553E-01
RMM:   9    -0.618406610590E+03    0.92629E-03   -0.18633E-03 12072   0.153E-01    0.396E-01
RMM:  10    -0.618405976127E+03    0.63446E-03   -0.12353E-03 12589   0.100E-01    0.174E-01
RMM:  11    -0.618406128203E+03   -0.15208E-03   -0.44285E-04 10958   0.700E-02    0.267E-01
RMM:  12    -0.618405827870E+03    0.30033E-03   -0.21918E-04 10571   0.495E-02    0.470E-02
RMM:  13    -0.618405855713E+03   -0.27843E-04   -0.14453E-04 11430   0.293E-02    0.637E-02
RMM:  14    -0.618405854135E+03    0.15775E-05   -0.55960E-05  8812   0.240E-02
   4 F= -.61840585E+03 E0= -.61832664E+03  d E =-.398773E+01
       N       E                     dE             d eps       ncg     rms          rms(c)
DAV:   1    -0.615122952486E+03    0.32829E+01   -0.28283E+02  9744   0.731E+01    0.647E+00
RMM:   2    -0.627459637488E+03   -0.12337E+02   -0.54173E+01 13913   0.223E+01    0.304E+01
RMM:   3    -0.619446582776E+03    0.80131E+01   -0.60738E+00 12870   0.883E+00    0.575E+00
RMM:   4    -0.619583452495E+03   -0.13687E+00   -0.16868E+00 14589   0.357E+00    0.750E+00
RMM:   5    -0.619348831623E+03    0.23462E+00   -0.40080E-01 14114   0.219E+00    0.299E+00
RMM:   6    -0.619336511352E+03    0.12320E-01   -0.23546E-01 15229   0.991E-01    0.287E+00
RMM:   7    -0.619317827829E+03    0.18684E-01   -0.11150E-01 15096   0.905E-01    0.208E+00
RMM:   8    -0.619306474706E+03    0.11353E-01   -0.10611E-01 14979   0.731E-01    0.206E+00
RMM:   9    -0.619306948182E+03   -0.47348E-03   -0.54939E-02 14436   0.753E-01    0.215E+00
RMM:  10    -0.619286921834E+03    0.20026E-01   -0.43663E-02 14771   0.566E-01    0.612E-01
RMM:  11    -0.619290816198E+03   -0.38944E-02   -0.23080E-02 15084   0.363E-01    0.107E+00
RMM:  12    -0.619288473031E+03    0.23432E-02   -0.13059E-02 14899   0.302E-01    0.637E-01
RMM:  13    -0.619286704646E+03    0.17684E-02   -0.87296E-03 14916   0.192E-01    0.213E-01
RMM:  14    -0.619287307936E+03   -0.60329E-03   -0.53707E-03 14646   0.146E-01    0.313E-01
RMM:  15    -0.619287232740E+03    0.75196E-04   -0.29024E-03 14341   0.119E-01    0.200E-01
RMM:  16    -0.619287277179E+03   -0.44439E-04   -0.23029E-03 13599   0.881E-02    0.105E-01
RMM:  17    -0.619287341188E+03   -0.64009E-04   -0.14120E-03 13117   0.699E-02    0.640E-02
RMM:  18    -0.619287399254E+03   -0.58066E-04   -0.82260E-04 12252   0.575E-02    0.428E-02
RMM:  19    -0.619287428921E+03   -0.29667E-04   -0.52382E-04 11885   0.446E-02    0.199E-02
RMM:  20    -0.619287456215E+03   -0.27294E-04   -0.33565E-04 11486   0.359E-02    0.193E-02
RMM:  21    -0.619287471675E+03   -0.15461E-04   -0.22162E-04 11204   0.295E-02    0.103E-02
RMM:  22    -0.619287483102E+03   -0.11426E-04   -0.14787E-04 10791   0.248E-02    0.737E-03
RMM:  23    -0.619287489685E+03   -0.65831E-05   -0.92700E-05 10330   0.222E-02
   5 F= -.61928749E+03 E0= -.61920596E+03  d E =-.881636E+00
       N       E                     dE             d eps       ncg     rms          rms(c)
DAV:   1    -0.619201500588E+03    0.85983E-01   -0.68285E+00  9792   0.114E+01    0.958E-01
RMM:   2    -0.619519877543E+03   -0.31838E+00   -0.12703E+00 13769   0.349E+00    0.643E+00
RMM:   3    -0.619317102272E+03    0.20278E+00   -0.14812E-01 12975   0.138E+00    0.161E+00
RMM:   4    -0.619309305330E+03    0.77969E-02   -0.39498E-02 13923   0.634E-01    0.939E-01
RMM:   5    -0.619305869422E+03    0.34359E-02   -0.12834E-02 14484   0.318E-01    0.630E-01
RMM:   6    -0.619304717723E+03    0.11517E-02   -0.53337E-03 14430   0.180E-01    0.417E-01
RMM:   7    -0.619304054545E+03    0.66318E-03   -0.29910E-03 14043   0.132E-01    0.233E-01
RMM:   8    -0.619304616493E+03   -0.56195E-03   -0.26697E-03 14256   0.130E-01    0.453E-01
RMM:   9    -0.619303777264E+03    0.83923E-03   -0.16319E-03 13410   0.124E-01    0.220E-01
RMM:  10    -0.619303714240E+03    0.63024E-04   -0.13241E-03 14134   0.878E-02    0.197E-01
RMM:  11    -0.619303687167E+03    0.27073E-04   -0.59214E-04 12559   0.727E-02    0.183E-01
RMM:  12    -0.619303577165E+03    0.11000E-03   -0.44901E-04 12211   0.520E-02    0.636E-02
RMM:  13    -0.619303598663E+03   -0.21498E-04   -0.26654E-04 11626   0.373E-02    0.828E-02
RMM:  14    -0.619303579755E+03    0.18908E-04   -0.13832E-04 11099   0.308E-02    0.390E-02
RMM:  15    -0.619303585857E+03   -0.61014E-05   -0.11267E-04 10570   0.210E-02    0.272E-02
RMM:  16    -0.619303587097E+03   -0.12399E-05   -0.70142E-05  9969   0.190E-02
   6 F= -.61930359E+03 E0= -.61922184E+03  d E =-.897733E+00
       N       E                     dE             d eps       ncg     rms          rms(c)
DAV:   1    -0.619046672135E+03    0.25691E+00   -0.53468E+01 12600   0.380E+01    0.545E+00
RMM:   2    -0.622135963518E+03   -0.30893E+01   -0.11459E+01 13574   0.115E+01    0.184E+01
RMM:   3    -0.619833963558E+03    0.23020E+01   -0.21118E+00 12880   0.561E+00    0.724E+00
RMM:   4    -0.619716261910E+03    0.11770E+00   -0.66836E-01 14439   0.246E+00    0.703E+00
RMM:   5    -0.619534718405E+03    0.18154E+00   -0.23673E-01 14032   0.160E+00    0.310E+00
RMM:   6    -0.619499884589E+03    0.34834E-01   -0.14171E-01 14649   0.980E-01    0.318E+00
RMM:   7    -0.619473442637E+03    0.26442E-01   -0.72093E-02 14073   0.874E-01    0.227E+00
RMM:   8    -0.619461768455E+03    0.11674E-01   -0.69633E-02 14803   0.729E-01    0.189E+00
RMM:   9    -0.619458429239E+03    0.33392E-02   -0.36852E-02 14206   0.630E-01    0.179E+00
RMM:  10    -0.619449806748E+03    0.86225E-02   -0.27882E-02 15060   0.464E-01    0.918E-01
RMM:  11    -0.619446141395E+03    0.36654E-02   -0.13875E-02 14768   0.298E-01    0.651E-01
RMM:  12    -0.619445240498E+03    0.90090E-03   -0.89776E-03 14658   0.208E-01    0.342E-01
RMM:  13    -0.619445395620E+03   -0.15512E-03   -0.54097E-03 14697   0.143E-01    0.273E-01
RMM:  14    -0.619445408579E+03   -0.12959E-04   -0.30891E-03 13990   0.113E-01    0.195E-01
RMM:  15    -0.619445539583E+03   -0.13100E-03   -0.21461E-03 13581   0.877E-02    0.140E-01
RMM:  16    -0.619445661603E+03   -0.12202E-03   -0.14876E-03 13428   0.696E-02    0.844E-02
RMM:  17    -0.619445862911E+03   -0.20131E-03   -0.11280E-03 13440   0.677E-02    0.935E-02
RMM:  18    -0.619445874125E+03   -0.11214E-04   -0.79203E-04 13041   0.624E-02    0.406E-02
RMM:  19    -0.619445895208E+03   -0.21084E-04   -0.50181E-04 12422   0.480E-02    0.161E-02
RMM:  20    -0.619445918525E+03   -0.23316E-04   -0.31815E-04 11755   0.358E-02    0.140E-02
RMM:  21    -0.619445933079E+03   -0.14554E-04   -0.19681E-04 11395   0.282E-02    0.122E-02
RMM:  22    -0.619445942260E+03   -0.91813E-05   -0.12717E-04 11182   0.228E-02    0.100E-02
RMM:  23    -0.619445947183E+03   -0.49228E-05   -0.76765E-05 10530   0.189E-02
   7 F= -.61944595E+03 E0= -.61936477E+03  d E =-.142360E+00
       N       E                     dE             d eps       ncg     rms          rms(c)
DAV:   1    -0.619444719284E+03    0.12230E-02   -0.24350E-01 12864   0.259E+00    0.362E-01
RMM:   2    -0.619459184098E+03   -0.14465E-01   -0.54169E-02 13261   0.803E-01    0.141E+00
RMM:   3    -0.619449701858E+03    0.94822E-02   -0.99318E-03 13132   0.374E-01    0.748E-01
RMM:   4    -0.619448104683E+03    0.15972E-02   -0.33083E-03 13313   0.192E-01    0.516E-01
RMM:   5    -0.619446989072E+03    0.11156E-02   -0.13998E-03 12962   0.116E-01    0.200E-01
RMM:   6    -0.619447115562E+03   -0.12649E-03   -0.75743E-04 12679   0.854E-02    0.317E-01
RMM:   7    -0.619446670533E+03    0.44503E-03   -0.44019E-04 12351   0.692E-02    0.105E-01
RMM:   8    -0.619446789467E+03   -0.11893E-03   -0.41984E-04 13268   0.607E-02    0.200E-01
RMM:   9    -0.619446638709E+03    0.15076E-03   -0.22010E-04 11599   0.540E-02    0.870E-02
RMM:  10    -0.619446627712E+03    0.10998E-04   -0.17823E-04 12056   0.342E-02    0.638E-02
RMM:  11    -0.619446617784E+03    0.99276E-05   -0.73741E-05 10764   0.288E-02
   8 F= -.61944662E+03 E0= -.61936553E+03  d E =-.143031E+00
       N       E                     dE             d eps       ncg     rms          rms(c)
DAV:   1    -0.618890493611E+03    0.55613E+00   -0.58400E+01 12504   0.440E+01    0.545E+00
RMM:   2    -0.621746902715E+03   -0.28564E+01   -0.14908E+01 13119   0.126E+01    0.169E+01
RMM:   3    -0.620253353117E+03    0.14935E+01   -0.23063E+00 12943   0.590E+00    0.109E+01
RMM:   4    -0.619727992472E+03    0.52536E+00   -0.81097E-01 14111   0.279E+00    0.571E+00
RMM:   5    -0.619612972478E+03    0.11502E+00   -0.25662E-01 13959   0.156E+00    0.325E+00
RMM:   6    -0.619561464867E+03    0.51508E-01   -0.14687E-01 14656   0.106E+00    0.274E+00
RMM:   7    -0.619540684848E+03    0.20780E-01   -0.66927E-02 13767   0.842E-01    0.227E+00
RMM:   8    -0.619540569580E+03    0.11527E-03   -0.87149E-02 14374   0.841E-01    0.200E+00
RMM:   9    -0.619527046398E+03    0.13523E-01   -0.47705E-02 14363   0.667E-01    0.174E+00
RMM:  10    -0.619515563167E+03    0.11483E-01   -0.24451E-02 14459   0.498E-01    0.801E-01
RMM:  11    -0.619513125919E+03    0.24372E-02   -0.11683E-02 14957   0.263E-01    0.523E-01
RMM:  12    -0.619512652053E+03    0.47387E-03   -0.66788E-03 14389   0.178E-01    0.287E-01
RMM:  13    -0.619512971976E+03   -0.31992E-03   -0.43338E-03 14577   0.119E-01    0.219E-01
RMM:  14    -0.619513114728E+03   -0.14275E-03   -0.23167E-03 14204   0.101E-01    0.193E-01
RMM:  15    -0.619513242432E+03   -0.12770E-03   -0.15376E-03 13583   0.801E-02    0.140E-01
RMM:  16    -0.619513454520E+03   -0.21209E-03   -0.12270E-03 13613   0.653E-02    0.922E-02
RMM:  17    -0.619513694757E+03   -0.24024E-03   -0.99850E-04 13353   0.653E-02    0.104E-01
RMM:  18    -0.619513725416E+03   -0.30660E-04   -0.73157E-04 13419   0.601E-02    0.296E-02
RMM:  19    -0.619513772184E+03   -0.46767E-04   -0.46869E-04 12466   0.474E-02    0.234E-02
RMM:  20    -0.619513795022E+03   -0.22838E-04   -0.30322E-04 11843   0.348E-02    0.208E-02
RMM:  21    -0.619513807383E+03   -0.12361E-04   -0.18673E-04 11292   0.290E-02    0.138E-02
RMM:  22    -0.619513816066E+03   -0.86835E-05   -0.11641E-04 10653   0.235E-02    0.109E-02
RMM:  23    -0.619513821661E+03   -0.55948E-05   -0.70140E-05 10078   0.198E-02
   9 F= -.61951382E+03 E0= -.61943520E+03  d E =-.672039E-01
       N       E                     dE             d eps       ncg     rms          rms(c)
DAV:   1    -0.619495283571E+03    0.18532E-01   -0.19535E+00 12552   0.804E+00    0.102E+00
RMM:   2    -0.619597247546E+03   -0.10196E+00   -0.51190E-01 13585   0.230E+00    0.330E+00
RMM:   3    -0.619545857554E+03    0.51390E-01   -0.81698E-02 12691   0.107E+00    0.231E+00
RMM:   4    -0.619527894411E+03    0.17963E-01   -0.27243E-02 13691   0.514E-01    0.130E+00
RMM:   5    -0.619520743704E+03    0.71507E-02   -0.98347E-03 13394   0.308E-01    0.528E-01
RMM:   6    -0.619519515659E+03    0.12280E-02   -0.53227E-03 14239   0.194E-01    0.542E-01
RMM:   7    -0.619518632650E+03    0.88301E-03   -0.22866E-03 12895   0.160E-01    0.427E-01
RMM:   8    -0.619518633424E+03   -0.77374E-06   -0.28524E-03 13867   0.152E-01    0.408E-01
RMM:   9    -0.619518215864E+03    0.41756E-03   -0.15802E-03 13288   0.132E-01    0.357E-01
RMM:  10    -0.619517685671E+03    0.53019E-03   -0.99738E-04 12760   0.988E-02    0.145E-01
RMM:  11    -0.619517581751E+03    0.10392E-03   -0.40623E-04 12836   0.559E-02    0.959E-02
RMM:  12    -0.619517568734E+03    0.13017E-04   -0.20985E-04 11876   0.391E-02    0.693E-02
RMM:  13    -0.619517563806E+03    0.49282E-05   -0.13691E-04 11386   0.255E-02    0.415E-02
RMM:  14    -0.619517561074E+03    0.27322E-05   -0.84456E-05 10816   0.208E-02
  10 F= -.61951756E+03 E0= -.61943852E+03  d E =-.709433E-01
       N       E                     dE             d eps       ncg     rms          rms(c)
DAV:   1    -0.619045066343E+03    0.47250E+00   -0.23847E+01 10416   0.297E+01    0.153E+00
RMM:   2    -0.619728397559E+03   -0.68333E+00   -0.53481E+00 15052   0.591E+00    0.622E+00
RMM:   3    -0.619600091431E+03    0.12831E+00   -0.46813E-01 11821   0.305E+00    0.298E+00
RMM:   4    -0.619594517787E+03    0.55736E-02   -0.15056E-01 14214   0.125E+00    0.227E+00
RMM:   5    -0.619570332283E+03    0.24186E-01   -0.56213E-02 14571   0.656E-01    0.844E-01
RMM:   6    -0.619565949835E+03    0.43824E-02   -0.20680E-02 15147   0.316E-01    0.611E-01
RMM:   7    -0.619566371910E+03   -0.42207E-03   -0.10287E-02 14869   0.259E-01    0.696E-01
RMM:   8    -0.619564509948E+03    0.18620E-02   -0.11449E-02 14778   0.259E-01    0.496E-01
RMM:   9    -0.619562991065E+03    0.15189E-02   -0.68692E-03 15125   0.209E-01    0.324E-01
RMM:  10    -0.619563575248E+03   -0.58418E-03   -0.31031E-03 14263   0.160E-01    0.468E-01
RMM:  11    -0.619562662285E+03    0.91296E-03   -0.18860E-03 14068   0.107E-01    0.765E-02
RMM:  12    -0.619562752754E+03   -0.90469E-04   -0.12805E-03 13408   0.642E-02    0.106E-01
RMM:  13    -0.619562770650E+03   -0.17896E-04   -0.56658E-04 12485   0.580E-02    0.102E-01
RMM:  14    -0.619562787152E+03   -0.16502E-04   -0.50056E-04 12185   0.428E-02    0.588E-02
RMM:  15    -0.619562795323E+03   -0.81707E-05   -0.30030E-04 11797   0.380E-02    0.462E-02
RMM:  16    -0.619562806334E+03   -0.11011E-04   -0.16412E-04 11540   0.331E-02    0.449E-02
RMM:  17    -0.619562809171E+03   -0.28374E-05   -0.13480E-04 11040   0.242E-02    0.172E-02
RMM:  18    -0.619562816284E+03   -0.71131E-05   -0.95455E-05 10515   0.224E-02
  11 F= -.61956282E+03 E0= -.61948373E+03  d E =-.452552E-01
       N       E                     dE             d eps       ncg     rms          rms(c)
DAV:   1    -0.619466569789E+03    0.96239E-01   -0.41574E+00 10080   0.126E+01    0.670E-01
RMM:   2    -0.619607925830E+03   -0.14136E+00   -0.10702E+00 15126   0.258E+00    0.299E+00
RMM:   3    -0.619574847736E+03    0.33078E-01   -0.82112E-02 12054   0.117E+00    0.130E+00
RMM:   4    -0.619573525335E+03    0.13224E-02   -0.28985E-02 14122   0.497E-01    0.989E-01
RMM:   5    -0.619568809652E+03    0.47157E-02   -0.83944E-03 14277   0.256E-01    0.388E-01
RMM:   6    -0.619568126921E+03    0.68273E-03   -0.35478E-03 14212   0.145E-01    0.335E-01
RMM:   7    -0.619567865299E+03    0.26162E-03   -0.20204E-03 13610   0.110E-01    0.255E-01
RMM:   8    -0.619567970726E+03   -0.10543E-03   -0.21369E-03 14570   0.117E-01    0.325E-01
RMM:   9    -0.619567611647E+03    0.35908E-03   -0.12665E-03 13759   0.107E-01    0.235E-01
RMM:  10    -0.619567415553E+03    0.19609E-03   -0.84335E-04 13640   0.768E-02    0.110E-01
RMM:  11    -0.619567412937E+03    0.26166E-05   -0.42656E-04 12715   0.510E-02    0.113E-01
RMM:  12    -0.619567373771E+03    0.39166E-04   -0.24970E-04 11714   0.422E-02    0.444E-02
RMM:  13    -0.619567376198E+03   -0.24270E-05   -0.19146E-04 11299   0.253E-02    0.277E-02
RMM:  14    -0.619567385900E+03   -0.97022E-05   -0.10053E-04 10785   0.236E-02    0.424E-02
RMM:  15    -0.619567386691E+03   -0.79072E-06   -0.68996E-05 10468   0.208E-02
  12 F= -.61956739E+03 E0= -.61948831E+03  d E =-.498256E-01
       N       E                     dE             d eps       ncg     rms          rms(c)
DAV:   1    -0.619325964608E+03    0.24142E+00   -0.11191E+01 10464   0.216E+01    0.141E+00
RMM:   2    -0.619692863414E+03   -0.36690E+00   -0.29940E+00 15090   0.428E+00    0.443E+00
RMM:   3    -0.619641355875E+03    0.51508E-01   -0.25262E-01 12107   0.218E+00    0.333E+00
RMM:   4    -0.619612074193E+03    0.29282E-01   -0.93702E-02 14425   0.974E-01    0.187E+00
RMM:   5    -0.619599069590E+03    0.13005E-01   -0.36488E-02 14385   0.544E-01    0.972E-01
RMM:   6    -0.619593517326E+03    0.55523E-02   -0.14277E-02 14903   0.322E-01    0.717E-01
RMM:   7    -0.619592772733E+03    0.74459E-03   -0.71591E-03 14774   0.237E-01    0.638E-01
RMM:   8    -0.619592557054E+03    0.21568E-03   -0.77698E-03 15016   0.234E-01    0.648E-01
RMM:   9    -0.619591366242E+03    0.11908E-02   -0.45237E-03 14404   0.203E-01    0.487E-01
RMM:  10    -0.619590628637E+03    0.73760E-03   -0.32132E-03 14861   0.156E-01    0.263E-01
RMM:  11    -0.619590327250E+03    0.30139E-03   -0.17071E-03 13869   0.981E-02    0.175E-01
RMM:  12    -0.619590295707E+03    0.31542E-04   -0.10655E-03 12864   0.718E-02    0.951E-02
RMM:  13    -0.619590311900E+03   -0.16193E-04   -0.64894E-04 12379   0.490E-02    0.627E-02
RMM:  14    -0.619590336696E+03   -0.24796E-04   -0.35669E-04 12004   0.412E-02    0.673E-02
RMM:  15    -0.619590347108E+03   -0.10412E-04   -0.24962E-04 11781   0.328E-02    0.425E-02
RMM:  16    -0.619590353158E+03   -0.60501E-05   -0.17582E-04 11520   0.288E-02    0.240E-02
RMM:  17    -0.619590359133E+03   -0.59747E-05   -0.11230E-04 11359   0.250E-02    0.157E-02
RMM:  18    -0.619590364884E+03   -0.57506E-05   -0.79987E-05 10776   0.216E-02
  13 F= -.61959036E+03 E0= -.61951089E+03  d E =-.229782E-01
       N       E                     dE             d eps       ncg     rms          rms(c)
DAV:   1    -0.619497039900E+03    0.93319E-01   -0.34877E+00 10440   0.123E+01    0.825E-01
RMM:   2    -0.619636631595E+03   -0.13959E+00   -0.11009E+00 15176   0.256E+00    0.286E+00
RMM:   3    -0.619611123764E+03    0.25508E-01   -0.94433E-02 12308   0.117E+00    0.189E+00
RMM:   4    -0.619602242954E+03    0.88808E-02   -0.32528E-02 14367   0.535E-01    0.113E+00
RMM:   5    -0.619597205875E+03    0.50371E-02   -0.11069E-02 14172   0.301E-01    0.547E-01
RMM:   6    -0.619595525899E+03    0.16800E-02   -0.46134E-03 14465   0.192E-01    0.427E-01
RMM:   7    -0.619595086966E+03    0.43893E-03   -0.24086E-03 13799   0.139E-01    0.332E-01
RMM:   8    -0.619595112166E+03   -0.25200E-04   -0.25959E-03 14937   0.137E-01    0.367E-01
RMM:   9    -0.619594759592E+03    0.35257E-03   -0.14908E-03 13774   0.118E-01    0.285E-01
RMM:  10    -0.619594527710E+03    0.23188E-03   -0.10918E-03 13806   0.929E-02    0.164E-01
RMM:  11    -0.619594428510E+03    0.99199E-04   -0.58107E-04 13023   0.620E-02    0.116E-01
RMM:  12    -0.619594397698E+03    0.30812E-04   -0.38499E-04 12258   0.446E-02    0.453E-02
RMM:  13    -0.619594406203E+03   -0.85047E-05   -0.23127E-04 11665   0.305E-02    0.337E-02
RMM:  14    -0.619594416207E+03   -0.10004E-04   -0.12792E-04 11297   0.259E-02    0.411E-02
RMM:  15    -0.619594418915E+03   -0.27083E-05   -0.92676E-05 10959   0.209E-02
  14 F= -.61959442E+03 E0= -.61951470E+03  d E =-.270322E-01
       N       E                     dE             d eps       ncg     rms          rms(c)
DAV:   1    -0.619451113965E+03    0.14330E+00   -0.75112E+00 12744   0.177E+01    0.139E+00
RMM:   2    -0.619736665629E+03   -0.28555E+00   -0.21456E+00 14713   0.380E+00    0.401E+00
RMM:   3    -0.619644677268E+03    0.91988E-01   -0.20862E-01 12502   0.177E+00    0.245E+00
RMM:   4    -0.619627885716E+03    0.16792E-01   -0.75277E-02 14663   0.735E-01    0.175E+00
RMM:   5    -0.619619033033E+03    0.88527E-02   -0.21459E-02 13949   0.461E-01    0.108E+00
RMM:   6    -0.619616613829E+03    0.24192E-02   -0.11413E-02 14271   0.295E-01    0.103E+00
RMM:   7    -0.619612239575E+03    0.43743E-02   -0.59196E-03 14324   0.231E-01    0.482E-01
RMM:   8    -0.619612765777E+03   -0.52620E-03   -0.67172E-03 14635   0.222E-01    0.532E-01
RMM:   9    -0.619611744971E+03    0.10208E-02   -0.41988E-03 14699   0.196E-01    0.459E-01
RMM:  10    -0.619611069319E+03    0.67565E-03   -0.22345E-03 13782   0.149E-01    0.270E-01
RMM:  11    -0.619610870702E+03    0.19862E-03   -0.12636E-03 13521   0.934E-02    0.192E-01
RMM:  12    -0.619610751163E+03    0.11954E-03   -0.69972E-04 12694   0.674E-02    0.779E-02
RMM:  13    -0.619610786974E+03   -0.35812E-04   -0.48535E-04 12269   0.404E-02    0.604E-02
RMM:  14    -0.619610799551E+03   -0.12576E-04   -0.27091E-04 11860   0.346E-02    0.358E-02
RMM:  15    -0.619610835007E+03   -0.35456E-04   -0.17436E-04 11542   0.285E-02    0.522E-02
RMM:  16    -0.619610844696E+03   -0.96893E-05   -0.10987E-04 11275   0.274E-02    0.350E-02
RMM:  17    -0.619610864721E+03   -0.20025E-04   -0.10185E-04 11165   0.222E-02    0.298E-02
RMM:  18    -0.619610869700E+03   -0.49795E-05   -0.70741E-05 11111   0.225E-02
  15 F= -.61961087E+03 E0= -.61953137E+03  d E =-.164508E-01
       N       E                     dE             d eps       ncg     rms          rms(c)
DAV:   1    -0.619463612625E+03    0.14725E+00   -0.71643E+00 12792   0.172E+01    0.136E+00
RMM:   2    -0.619733190222E+03   -0.26958E+00   -0.20322E+00 14668   0.371E+00    0.387E+00
RMM:   3    -0.619646677741E+03    0.86512E-01   -0.19971E-01 12460   0.173E+00    0.236E+00
RMM:   4    -0.619631321209E+03    0.15357E-01   -0.70985E-02 14671   0.717E-01    0.170E+00
RMM:   5    -0.619622969866E+03    0.83513E-02   -0.20246E-02 13897   0.446E-01    0.104E+00
RMM:   6    -0.619620507846E+03    0.24620E-02   -0.10673E-02 14289   0.286E-01    0.972E-01
RMM:   7    -0.619616583723E+03    0.39241E-02   -0.55262E-03 14323   0.222E-01    0.462E-01
RMM:   8    -0.619617142550E+03   -0.55883E-03   -0.62620E-03 14606   0.215E-01    0.520E-01
RMM:   9    -0.619616193227E+03    0.94932E-03   -0.38621E-03 14631   0.191E-01    0.443E-01
RMM:  10    -0.619615520971E+03    0.67226E-03   -0.21045E-03 13733   0.143E-01    0.245E-01
RMM:  11    -0.619615376155E+03    0.14482E-03   -0.12099E-03 13485   0.910E-02    0.180E-01
RMM:  12    -0.619615274470E+03    0.10168E-03   -0.66125E-04 12671   0.655E-02    0.725E-02
RMM:  13    -0.619615313649E+03   -0.39179E-04   -0.46674E-04 12195   0.395E-02    0.581E-02
RMM:  14    -0.619615329234E+03   -0.15586E-04   -0.25950E-04 11835   0.341E-02    0.386E-02
RMM:  15    -0.619615363350E+03   -0.34116E-04   -0.16275E-04 11448   0.287E-02    0.585E-02
RMM:  16    -0.619615373686E+03   -0.10336E-04   -0.11577E-04 11306   0.264E-02    0.297E-02
RMM:  17    -0.619615397432E+03   -0.23746E-04   -0.10341E-04 11294   0.227E-02    0.298E-02
RMM:  18    -0.619615401026E+03   -0.35937E-05   -0.68803E-05 11166   0.229E-02
  16 F= -.61961540E+03 E0= -.61953623E+03  d E =-.209821E-01
       N       E                     dE             d eps       ncg     rms          rms(c)
DAV:   1    -0.619486881195E+03    0.12852E+00   -0.58491E+00 10344   0.151E+01    0.695E-01
RMM:   2    -0.619640081651E+03   -0.15320E+00   -0.14361E+00 15063   0.288E+00    0.204E+00
RMM:   3    -0.619636358712E+03    0.37229E-02   -0.10829E-01 12430   0.137E+00    0.149E+00
RMM:   4    -0.619635133256E+03    0.12255E-02   -0.34607E-02 14375   0.557E-01    0.112E+00
RMM:   5    -0.619630312542E+03    0.48207E-02   -0.12342E-02 13679   0.329E-01    0.521E-01
RMM:   6    -0.619629205804E+03    0.11067E-02   -0.51779E-03 14122   0.169E-01    0.328E-01
RMM:   7    -0.619629035806E+03    0.17000E-03   -0.26531E-03 13763   0.115E-01    0.274E-01
RMM:   8    -0.619629110117E+03   -0.74311E-04   -0.22896E-03 14532   0.130E-01    0.339E-01
RMM:   9    -0.619628619871E+03    0.49025E-03   -0.13809E-03 13846   0.106E-01    0.194E-01
RMM:  10    -0.619628612708E+03    0.71623E-05   -0.98512E-04 13776   0.816E-02    0.175E-01
RMM:  11    -0.619628527427E+03    0.85281E-04   -0.46974E-04 12493   0.643E-02    0.114E-01
RMM:  12    -0.619628492494E+03    0.34933E-04   -0.37257E-04 12031   0.420E-02    0.433E-02
RMM:  13    -0.619628494259E+03   -0.17645E-05   -0.21521E-04 11415   0.321E-02    0.265E-02
RMM:  14    -0.619628502021E+03   -0.77617E-05   -0.12925E-04 11018   0.243E-02    0.278E-02
RMM:  15    -0.619628509799E+03   -0.77786E-05   -0.80875E-05 10764   0.226E-02
  17 F= -.61962851E+03 E0= -.61954946E+03  d E =-.131088E-01
       N       E                     dE             d eps       ncg     rms          rms(c)
DAV:   1    -0.619384775818E+03    0.24373E+00   -0.95606E+00 10080   0.195E+01    0.895E-01
RMM:   2    -0.619652342239E+03   -0.26757E+00   -0.25976E+00 15168   0.380E+00    0.220E+00
RMM:   3    -0.619654702865E+03   -0.23606E-02   -0.17159E-01 12612   0.155E+00    0.207E+00
RMM:   4    -0.619649471293E+03    0.52316E-02   -0.58694E-02 14460   0.650E-01    0.139E+00
RMM:   5    -0.619641663127E+03    0.78082E-02   -0.15158E-02 13822   0.387E-01    0.675E-01
RMM:   6    -0.619639706088E+03    0.19570E-02   -0.79408E-03 14295   0.208E-01    0.409E-01
RMM:   7    -0.619639546114E+03    0.15997E-03   -0.41926E-03 14080   0.149E-01    0.365E-01
RMM:   8    -0.619639552478E+03   -0.63649E-05   -0.36881E-03 14603   0.163E-01    0.421E-01
RMM:   9    -0.619638839076E+03    0.71340E-03   -0.22338E-03 14206   0.135E-01    0.247E-01
RMM:  10    -0.619638824070E+03    0.15006E-04   -0.16347E-03 14211   0.994E-02    0.217E-01
RMM:  11    -0.619638683822E+03    0.14025E-03   -0.76414E-04 12933   0.794E-02    0.136E-01
RMM:  12    -0.619638646730E+03    0.37092E-04   -0.62268E-04 12441   0.524E-02    0.576E-02
RMM:  13    -0.619638645460E+03    0.12702E-05   -0.35103E-04 11706   0.389E-02    0.272E-02
RMM:  14    -0.619638663174E+03   -0.17714E-04   -0.21775E-04 11331   0.295E-02    0.323E-02
RMM:  15    -0.619638670629E+03   -0.74545E-05   -0.13898E-04 11242   0.268E-02    0.331E-02
RMM:  16    -0.619638673129E+03   -0.25004E-05   -0.86105E-05 10803   0.225E-02
  18 F= -.61963867E+03 E0= -.61956002E+03  d E =-.232721E-01
       N       E                     dE             d eps       ncg     rms          rms(c)
DAV:   1    -0.618652021922E+03    0.98665E+00   -0.38890E+01 10224   0.389E+01    0.173E+00
RMM:   2    -0.619619016265E+03   -0.96699E+00   -0.10026E+01 15127   0.754E+00    0.211E+00
RMM:   3    -0.619693238482E+03   -0.74222E-01   -0.69035E-01 12459   0.324E+00    0.373E+00
RMM:   4    -0.619649153094E+03    0.44085E-01   -0.20286E-01 14559   0.125E+00    0.156E+00
RMM:   5    -0.619644346352E+03    0.48067E-02   -0.62222E-02 14883   0.665E-01    0.150E+00
RMM:   6    -0.619636921073E+03    0.74253E-02   -0.27049E-02 15087   0.352E-01    0.700E-01
RMM:   7    -0.619639791988E+03   -0.28709E-02   -0.14396E-02 14769   0.304E-01    0.105E+00
RMM:   8    -0.619635060595E+03    0.47314E-02   -0.13194E-02 14726   0.305E-01    0.576E-01
RMM:   9    -0.619634960603E+03    0.99992E-04   -0.86084E-03 15065   0.249E-01    0.617E-01
RMM:  10    -0.619634185478E+03    0.77513E-03   -0.54860E-03 14598   0.205E-01    0.424E-01
RMM:  11    -0.619633580105E+03    0.60537E-03   -0.33628E-03 14459   0.139E-01    0.234E-01
RMM:  12    -0.619633541522E+03    0.38583E-04   -0.20975E-03 13375   0.104E-01    0.154E-01
RMM:  13    -0.619633474285E+03    0.67237E-04   -0.13530E-03 13348   0.738E-02    0.584E-02
RMM:  14    -0.619633550120E+03   -0.75835E-04   -0.85926E-04 12609   0.562E-02    0.740E-02
RMM:  15    -0.619633572701E+03   -0.22580E-04   -0.49459E-04 12274   0.517E-02    0.723E-02
RMM:  16    -0.619633582164E+03   -0.94638E-05   -0.34684E-04 11663   0.389E-02    0.399E-02
RMM:  17    -0.619633597588E+03   -0.15424E-04   -0.23131E-04 11266   0.321E-02    0.252E-02
RMM:  18    -0.619633605805E+03   -0.82170E-05   -0.15642E-04 11003   0.269E-02    0.162E-02
RMM:  19    -0.619633610545E+03   -0.47404E-05   -0.10184E-04 10612   0.227E-02    0.703E-03
RMM:  20    -0.619633615389E+03   -0.48438E-05   -0.71231E-05  9881   0.195E-02
  19 F= -.61963362E+03 E0= -.61955621E+03  d E =-.182144E-01
       N       E                     dE             d eps       ncg     rms          rms(c)
DAV:   1    -0.619205196962E+03    0.42841E+00   -0.17474E+01 10176   0.262E+01    0.129E+00
RMM:   2    -0.619801436686E+03   -0.59624E+00   -0.46332E+00 15113   0.525E+00    0.602E+00
RMM:   3    -0.619655178488E+03    0.14626E+00   -0.34902E-01 12444   0.233E+00    0.193E+00
RMM:   4    -0.619661189686E+03   -0.60112E-02   -0.11357E-01 14307   0.957E-01    0.186E+00
RMM:   5    -0.619645241965E+03    0.15948E-01   -0.32711E-02 14071   0.554E-01    0.747E-01
RMM:   6    -0.619642882189E+03    0.23598E-02   -0.14751E-02 14905   0.276E-01    0.572E-01
RMM:   7    -0.619642541885E+03    0.34030E-03   -0.72920E-03 14656   0.201E-01    0.498E-01
RMM:   8    -0.619642903998E+03   -0.36211E-03   -0.69688E-03 14653   0.221E-01    0.644E-01
RMM:   9    -0.619641120045E+03    0.17840E-02   -0.38392E-03 14212   0.179E-01    0.301E-01
RMM:  10    -0.619641007430E+03    0.11262E-03   -0.26667E-03 14355   0.123E-01    0.218E-01
RMM:  11    -0.619640882674E+03    0.12476E-03   -0.11957E-03 13336   0.975E-02    0.156E-01
RMM:  12    -0.619640867739E+03    0.14934E-04   -0.94276E-04 12669   0.602E-02    0.842E-02
RMM:  13    -0.619640861729E+03    0.60105E-05   -0.50697E-04 12186   0.481E-02    0.393E-02
RMM:  14    -0.619640901444E+03   -0.39715E-04   -0.30478E-04 11769   0.379E-02    0.642E-02
RMM:  15    -0.619640911227E+03   -0.97830E-05   -0.18499E-04 11541   0.339E-02    0.511E-02
RMM:  16    -0.619640911929E+03   -0.70200E-06   -0.14494E-04 11085   0.247E-02    0.192E-02
RMM:  17    -0.619640921044E+03   -0.91145E-05   -0.94005E-05 10611   0.217E-02
  20 F= -.61964092E+03 E0= -.61956262E+03  d E =-.255200E-01
       N       E                     dE             d eps       ncg     rms          rms(c)
DAV:   1    -0.619577584007E+03    0.63328E-01   -0.30243E+00 10536   0.105E+01    0.814E-01
RMM:   2    -0.619689368858E+03   -0.11178E+00   -0.89559E-01 14928   0.247E+00    0.224E+00
RMM:   3    -0.619662316345E+03    0.27053E-01   -0.10146E-01 12254   0.103E+00    0.124E+00
RMM:   4    -0.619658733202E+03    0.35831E-02   -0.25021E-02 14486   0.408E-01    0.104E+00
RMM:   5    -0.619655859250E+03    0.28740E-02   -0.67869E-03 13428   0.265E-01    0.648E-01
RMM:   6    -0.619654003512E+03    0.18557E-02   -0.34289E-03 13821   0.162E-01    0.416E-01
RMM:   7    -0.619653551824E+03    0.45169E-03   -0.17258E-03 13033   0.124E-01    0.321E-01
RMM:   8    -0.619653453063E+03    0.98761E-04   -0.19732E-03 14255   0.123E-01    0.318E-01
RMM:   9    -0.619653197573E+03    0.25549E-03   -0.12229E-03 13323   0.110E-01    0.256E-01
RMM:  10    -0.619653015365E+03    0.18221E-03   -0.87245E-04 13679   0.837E-02    0.156E-01
RMM:  11    -0.619652909761E+03    0.10560E-03   -0.43044E-04 12697   0.567E-02    0.104E-01
RMM:  12    -0.619652882020E+03    0.27741E-04   -0.25732E-04 12016   0.392E-02    0.461E-02
RMM:  13    -0.619652880107E+03    0.19134E-05   -0.15549E-04 11313   0.239E-02    0.249E-02
RMM:  14    -0.619652886887E+03   -0.67804E-05   -0.74924E-05 10261   0.213E-02
  21 F= -.61965289E+03 E0= -.61957458E+03  d E =-.119658E-01
       N       E                     dE             d eps       ncg     rms          rms(c)
DAV:   1    -0.619602438671E+03    0.50441E-01   -0.30516E+00 11112   0.102E+01    0.779E-01
RMM:   2    -0.619692355344E+03   -0.89917E-01   -0.69299E-01 14779   0.218E+00    0.216E+00
RMM:   3    -0.619665840366E+03    0.26515E-01   -0.74999E-02 11917   0.118E+00    0.118E+00
RMM:   4    -0.619662360626E+03    0.34797E-02   -0.25346E-02 14496   0.453E-01    0.927E-01
RMM:   5    -0.619660575431E+03    0.17852E-02   -0.84882E-03 13582   0.272E-01    0.645E-01
RMM:   6    -0.619658866169E+03    0.17093E-02   -0.35882E-03 13858   0.164E-01    0.414E-01
RMM:   7    -0.619658360299E+03    0.50587E-03   -0.17818E-03 13189   0.122E-01    0.296E-01
RMM:   8    -0.619658331971E+03    0.28328E-04   -0.19976E-03 14294   0.123E-01    0.309E-01
RMM:   9    -0.619658071339E+03    0.26063E-03   -0.12056E-03 13544   0.106E-01    0.232E-01
RMM:  10    -0.619657944906E+03    0.12643E-03   -0.81267E-04 13742   0.805E-02    0.152E-01
RMM:  11    -0.619657855336E+03    0.89570E-04   -0.43566E-04 12744   0.548E-02    0.990E-02
RMM:  12    -0.619657833804E+03    0.21532E-04   -0.26950E-04 12170   0.383E-02    0.430E-02
RMM:  13    -0.619657834840E+03   -0.10360E-05   -0.16280E-04 11370   0.249E-02    0.235E-02
RMM:  14    -0.619657843008E+03   -0.81676E-05   -0.94717E-05 10583   0.212E-02
  22 F= -.61965784E+03 E0= -.61957959E+03  d E =-.169220E-01
       N       E                     dE             d eps       ncg     rms          rms(c)
DAV:   1    -0.619604611767E+03    0.53223E-01   -0.34894E+00 12816   0.114E+01    0.123E+00
RMM:   2    -0.619792585595E+03   -0.18797E+00   -0.10562E+00 13918   0.292E+00    0.433E+00
RMM:   3    -0.619708663920E+03    0.83922E-01   -0.14506E-01 12757   0.132E+00    0.283E+00
RMM:   4    -0.619679293232E+03    0.29371E-01   -0.44590E-02 13534   0.650E-01    0.139E+00
RMM:   5    -0.619671624676E+03    0.76686E-02   -0.15964E-02 13710   0.366E-01    0.745E-01
RMM:   6    -0.619670162946E+03    0.14617E-02   -0.78822E-03 13887   0.255E-01    0.764E-01
RMM:   7    -0.619667550905E+03    0.26120E-02   -0.39604E-03 13552   0.191E-01    0.423E-01
RMM:   8    -0.619668165249E+03   -0.61434E-03   -0.43642E-03 13964   0.191E-01    0.521E-01
RMM:   9    -0.619667152734E+03    0.10125E-02   -0.23859E-03 13411   0.158E-01    0.368E-01
RMM:  10    -0.619666658104E+03    0.49463E-03   -0.14763E-03 13014   0.115E-01    0.203E-01
RMM:  11    -0.619666539611E+03    0.11849E-03   -0.68171E-04 12697   0.731E-02    0.164E-01
RMM:  12    -0.619666426542E+03    0.11307E-03   -0.32494E-04 12070   0.519E-02    0.544E-02
RMM:  13    -0.619666456527E+03   -0.29986E-04   -0.24519E-04 11890   0.311E-02    0.538E-02
RMM:  14    -0.619666459826E+03   -0.32987E-05   -0.11479E-04 11127   0.262E-02    0.390E-02
RMM:  15    -0.619666470834E+03   -0.11008E-04   -0.83102E-05 10443   0.206E-02    0.352E-02
RMM:  16    -0.619666482848E+03   -0.12014E-04   -0.64042E-05 10292   0.194E-02    0.177E-02
RMM:  17    -0.619666497635E+03   -0.14787E-04   -0.54236E-05 10150   0.180E-02    0.187E-02
RMM:  18    -0.619666500573E+03   -0.29379E-05   -0.36872E-05  8790   0.174E-02
  23 F= -.61966650E+03 E0= -.61958858E+03  d E =-.865757E-02
       N       E                     dE             d eps       ncg     rms          rms(c)
DAV:   1    -0.619646263691E+03    0.20234E-01   -0.98674E-01 12744   0.616E+00    0.663E-01
RMM:   2    -0.619702164466E+03   -0.55901E-01   -0.32987E-01 13940   0.165E+00    0.229E+00
RMM:   3    -0.619679924543E+03    0.22240E-01   -0.49474E-02 12615   0.706E-01    0.154E+00
RMM:   4    -0.619671191983E+03    0.87326E-02   -0.12571E-02 13297   0.349E-01    0.753E-01
RMM:   5    -0.619668942340E+03    0.22496E-02   -0.46127E-03 13055   0.200E-01    0.403E-01
RMM:   6    -0.619668467571E+03    0.47477E-03   -0.22325E-03 13421   0.135E-01    0.398E-01
RMM:   7    -0.619667774216E+03    0.69335E-03   -0.11042E-03 12643   0.102E-01    0.227E-01
RMM:   8    -0.619667940120E+03   -0.16590E-03   -0.11994E-03 13263   0.101E-01    0.275E-01
RMM:   9    -0.619667656255E+03    0.28386E-03   -0.68760E-04 12695   0.883E-02    0.190E-01
RMM:  10    -0.619667532507E+03    0.12375E-03   -0.43950E-04 12152   0.645E-02    0.109E-01
RMM:  11    -0.619667500398E+03    0.32109E-04   -0.20491E-04 11832   0.413E-02    0.859E-02
RMM:  12    -0.619667471817E+03    0.28581E-04   -0.95760E-05 10521   0.292E-02    0.304E-02
RMM:  13    -0.619667482401E+03   -0.10584E-04   -0.73754E-05  9763   0.188E-02    0.281E-02
RMM:  14    -0.619667485418E+03   -0.30171E-05   -0.37026E-05  8222   0.178E-02
  24 F= -.61966749E+03 E0= -.61958974E+03  d E =-.964241E-02
       N       E                     dE             d eps       ncg     rms          rms(c)
DAV:   1    -0.619560271739E+03    0.10721E+00   -0.42581E+00 10344   0.132E+01    0.673E-01
RMM:   2    -0.619685958637E+03   -0.12569E+00   -0.11784E+00 15221   0.263E+00    0.182E+00
RMM:   3    -0.619680802994E+03    0.51556E-02   -0.97392E-02 11971   0.122E+00    0.134E+00
RMM:   4    -0.619679352159E+03    0.14508E-02   -0.27132E-02 14213   0.498E-01    0.101E+00
RMM:   5    -0.619675436830E+03    0.39153E-02   -0.90350E-03 13951   0.281E-01    0.472E-01
RMM:   6    -0.619674392289E+03    0.10445E-02   -0.39088E-03 14128   0.151E-01    0.342E-01
RMM:   7    -0.619674090713E+03    0.30158E-03   -0.18170E-03 13280   0.112E-01    0.239E-01
RMM:   8    -0.619674038937E+03    0.51776E-04   -0.17868E-03 14639   0.112E-01    0.252E-01
RMM:   9    -0.619673832135E+03    0.20680E-03   -0.11032E-03 13958   0.987E-02    0.196E-01
RMM:  10    -0.619673749940E+03    0.82195E-04   -0.69839E-04 13368   0.777E-02    0.134E-01
RMM:  11    -0.619673656916E+03    0.93024E-04   -0.39575E-04 12727   0.479E-02    0.541E-02
RMM:  12    -0.619673684902E+03   -0.27986E-04   -0.21652E-04 11819   0.385E-02    0.809E-02
RMM:  13    -0.619673664300E+03    0.20602E-04   -0.14710E-04 11446   0.260E-02    0.287E-02
RMM:  14    -0.619673667199E+03   -0.28988E-05   -0.94926E-05 10772   0.214E-02
  25 F= -.61967367E+03 E0= -.61959590E+03  d E =-.618178E-02
       N       E                     dE             d eps       ncg     rms          rms(c)
DAV:   1    -0.619640963005E+03    0.32701E-01   -0.98183E-01 10200   0.655E+00    0.346E-01
RMM:   2    -0.619676729786E+03   -0.35767E-01   -0.34012E-01 15294   0.142E+00    0.815E-01
RMM:   3    -0.619676665283E+03    0.64503E-04   -0.35875E-02 12037   0.551E-01    0.625E-01
RMM:   4    -0.619676322754E+03    0.34253E-03   -0.61099E-03 13866   0.225E-01    0.519E-01
RMM:   5    -0.619675398203E+03    0.92455E-03   -0.18968E-03 13175   0.137E-01    0.263E-01
RMM:   6    -0.619675114888E+03    0.28332E-03   -0.98811E-04 12953   0.739E-02    0.182E-01
RMM:   7    -0.619675019442E+03    0.95446E-04   -0.46230E-04 12389   0.583E-02    0.114E-01
RMM:   8    -0.619675033496E+03   -0.14054E-04   -0.45324E-04 13516   0.569E-02    0.136E-01
RMM:   9    -0.619674965937E+03    0.67559E-04   -0.26443E-04 12169   0.530E-02    0.934E-02
RMM:  10    -0.619674953765E+03    0.12171E-04   -0.21404E-04 12423   0.395E-02    0.689E-02
RMM:  11    -0.619674930298E+03    0.23468E-04   -0.10755E-04 11610   0.311E-02    0.341E-02
RMM:  12    -0.619674934979E+03   -0.46813E-05   -0.70924E-05 10577   0.221E-02
  26 F= -.61967493E+03 E0= -.61959716E+03  d E =-.744956E-02
       N       E                     dE             d eps       ncg     rms          rms(c)
DAV:   1    -0.619553703599E+03    0.12123E+00   -0.40830E+00 10128   0.131E+01    0.678E-01
RMM:   2    -0.619686358878E+03   -0.13266E+00   -0.12467E+00 15273   0.268E+00    0.178E+00
RMM:   3    -0.619680754335E+03    0.56045E-02   -0.10317E-01 12023   0.112E+00    0.128E+00
RMM:   4    -0.619679447579E+03    0.13068E-02   -0.26541E-02 14296   0.467E-01    0.101E+00
RMM:   5    -0.619675636180E+03    0.38114E-02   -0.76053E-03 14004   0.264E-01    0.490E-01
RMM:   6    -0.619674550754E+03    0.10854E-02   -0.37122E-03 14003   0.146E-01    0.345E-01
RMM:   7    -0.619674232122E+03    0.31863E-03   -0.17831E-03 13228   0.109E-01    0.231E-01
RMM:   8    -0.619674209216E+03    0.22906E-04   -0.16894E-03 14703   0.108E-01    0.252E-01
RMM:   9    -0.619674013684E+03    0.19553E-03   -0.10385E-03 13807   0.964E-02    0.191E-01
RMM:  10    -0.619673919256E+03    0.94428E-04   -0.73250E-04 13679   0.749E-02    0.117E-01
RMM:  11    -0.619673849923E+03    0.69333E-04   -0.39995E-04 12655   0.474E-02    0.517E-02
RMM:  12    -0.619673877507E+03   -0.27584E-04   -0.22192E-04 11848   0.386E-02    0.751E-02
RMM:  13    -0.619673860746E+03    0.16761E-04   -0.15103E-04 11447   0.263E-02    0.262E-02
RMM:  14    -0.619673867541E+03   -0.67949E-05   -0.98357E-05 10887   0.216E-02
  27 F= -.61967387E+03 E0= -.61959612E+03  d E =-.638212E-02
       N       E                     dE             d eps       ncg     rms          rms(c)
DAV:   1    -0.619607591628E+03    0.66269E-01   -0.23330E+00 10152   0.996E+00    0.506E-01
RMM:   2    -0.619680358524E+03   -0.72767E-01   -0.69812E-01 15283   0.201E+00    0.111E+00
RMM:   3    -0.619678246738E+03    0.21118E-02   -0.56806E-02 12008   0.845E-01    0.809E-01
RMM:   4    -0.619677474182E+03    0.77256E-03   -0.14421E-02 14458   0.324E-01    0.622E-01
RMM:   5    -0.619676180299E+03    0.12939E-02   -0.33392E-03 13225   0.192E-01    0.396E-01
RMM:   6    -0.619675529783E+03    0.65052E-03   -0.16034E-03 13244   0.105E-01    0.262E-01
RMM:   7    -0.619675380109E+03    0.14967E-03   -0.85875E-04 12654   0.751E-02    0.193E-01
RMM:   8    -0.619675293432E+03    0.86677E-04   -0.85849E-04 14044   0.831E-02    0.182E-01
RMM:   9    -0.619675229858E+03    0.63574E-04   -0.55689E-04 12939   0.728E-02    0.171E-01
RMM:  10    -0.619675144151E+03    0.85707E-04   -0.37445E-04 12861   0.593E-02    0.101E-01
RMM:  11    -0.619675107176E+03    0.36975E-04   -0.19484E-04 12056   0.384E-02    0.664E-02
RMM:  12    -0.619675099454E+03    0.77221E-05   -0.10892E-04 11430   0.290E-02    0.359E-02
RMM:  13    -0.619675100512E+03   -0.10581E-05   -0.74182E-05 10411   0.182E-02
  28 F= -.61967510E+03 E0= -.61959732E+03  d E =-.761509E-02
       N       E                     dE             d eps       ncg     rms          rms(c)
DAV:   1    -0.619634018003E+03    0.41081E-01   -0.13567E+00  9816   0.779E+00    0.435E-01
RMM:   2    -0.619683025524E+03   -0.49008E-01   -0.46453E-01 15332   0.172E+00    0.102E+00
RMM:   3    -0.619681482402E+03    0.15431E-02   -0.45220E-02 12230   0.686E-01    0.744E-01
RMM:   4    -0.619680141886E+03    0.13405E-02   -0.90068E-03 14330   0.282E-01    0.495E-01
RMM:   5    -0.619679818817E+03    0.32307E-03   -0.29925E-03 13742   0.170E-01    0.440E-01
RMM:   6    -0.619678900661E+03    0.91816E-03   -0.12783E-03 13332   0.962E-02    0.168E-01
RMM:   7    -0.619678957748E+03   -0.57087E-04   -0.76371E-04 12905   0.705E-02    0.207E-01
RMM:   8    -0.619678855771E+03    0.10198E-03   -0.65594E-04 13738   0.763E-02    0.162E-01
RMM:   9    -0.619678742362E+03    0.11341E-03   -0.42771E-04 13220   0.632E-02    0.103E-01
RMM:  10    -0.619678741987E+03    0.37487E-06   -0.28894E-04 12668   0.501E-02    0.985E-02
RMM:  11    -0.619678696554E+03    0.45432E-04   -0.15184E-04 11762   0.358E-02    0.433E-02
RMM:  12    -0.619678699066E+03   -0.25116E-05   -0.96879E-05 11177   0.249E-02
  29 F= -.61967870E+03 E0= -.61960084E+03  d E =-.359855E-02
       N       E                     dE             d eps       ncg     rms          rms(c)
DAV:   1    -0.619669169448E+03    0.95271E-02   -0.29926E-01 10296   0.368E+00    0.206E-01
RMM:   2    -0.619680277543E+03   -0.11108E-01   -0.10565E-01 15286   0.824E-01    0.472E-01
RMM:   3    -0.619680015270E+03    0.26227E-03   -0.10770E-02 12208   0.326E-01    0.368E-01
RMM:   4    -0.619679665383E+03    0.34989E-03   -0.21090E-03 13449   0.136E-01    0.230E-01
RMM:   5    -0.619679601001E+03    0.64382E-04   -0.74325E-04 12662   0.849E-02    0.205E-01
RMM:   6    -0.619679413811E+03    0.18719E-03   -0.34706E-04 12324   0.475E-02    0.848E-02
RMM:   7    -0.619679420319E+03   -0.65075E-05   -0.20441E-04 11821   0.371E-02    0.904E-02
RMM:   8    -0.619679413808E+03    0.65113E-05   -0.16614E-04 12124   0.376E-02    0.832E-02
RMM:   9    -0.619679385338E+03    0.28469E-04   -0.10637E-04 11425   0.347E-02    0.511E-02
RMM:  10    -0.619679383562E+03    0.17762E-05   -0.88723E-05 11286   0.266E-02
  30 F= -.61967938E+03 E0= -.61960152E+03  d E =-.428305E-02
       N       E                     dE             d eps       ncg     rms          rms(c)
DAV:   1    -0.619639484836E+03    0.39901E-01   -0.12074E+00  9840   0.736E+00    0.405E-01
RMM:   2    -0.619682259742E+03   -0.42775E-01   -0.40985E-01 15306   0.161E+00    0.913E-01
RMM:   3    -0.619681346168E+03    0.91357E-03   -0.39151E-02 12238   0.645E-01    0.727E-01
RMM:   4    -0.619679994990E+03    0.13512E-02   -0.81524E-03 14333   0.265E-01    0.457E-01
RMM:   5    -0.619679719723E+03    0.27527E-03   -0.27156E-03 13623   0.160E-01    0.407E-01
RMM:   6    -0.619678952111E+03    0.76761E-03   -0.12366E-03 13257   0.905E-02    0.159E-01
RMM:   7    -0.619678999354E+03   -0.47242E-04   -0.74056E-04 12874   0.671E-02    0.188E-01
RMM:   8    -0.619678936681E+03    0.62673E-04   -0.61366E-04 13729   0.729E-02    0.160E-01
RMM:   9    -0.619678834728E+03    0.10195E-03   -0.39419E-04 12985   0.612E-02    0.990E-02
RMM:  10    -0.619678833901E+03    0.82773E-06   -0.29823E-04 12898   0.468E-02    0.903E-02
RMM:  11    -0.619678797967E+03    0.35934E-04   -0.15183E-04 11716   0.364E-02    0.416E-02
RMM:  12    -0.619678801255E+03   -0.32883E-05   -0.10615E-04 11206   0.241E-02    0.309E-02
RMM:  13    -0.619678799569E+03    0.16856E-05   -0.65178E-05 10525   0.201E-02
  31 F= -.61967880E+03 E0= -.61960090E+03  d E =-.369906E-02
       N       E                     dE             d eps       ncg     rms          rms(c)
DAV:   1    -0.619661782668E+03    0.17019E-01   -0.63480E-01 10104   0.524E+00    0.284E-01
RMM:   2    -0.619681643721E+03   -0.19861E-01   -0.19057E-01 15316   0.108E+00    0.630E-01
RMM:   3    -0.619680715177E+03    0.92854E-03   -0.13921E-02 12093   0.469E-01    0.489E-01
RMM:   4    -0.619679920666E+03    0.79451E-03   -0.41671E-03 13980   0.183E-01    0.232E-01
RMM:   5    -0.619679825879E+03    0.94786E-04   -0.10698E-03 12899   0.108E-01    0.240E-01
RMM:   6    -0.619679540110E+03    0.28577E-03   -0.49084E-04 12530   0.607E-02    0.905E-02
RMM:   7    -0.619679628662E+03   -0.88552E-04   -0.34419E-04 12800   0.496E-02    0.169E-01
RMM:   8    -0.619679552303E+03    0.76359E-04   -0.24617E-04 12020   0.516E-02    0.132E-01
RMM:   9    -0.619679502531E+03    0.49772E-04   -0.16935E-04 11597   0.421E-02    0.903E-02
RMM:  10    -0.619679481574E+03    0.20958E-04   -0.12252E-04 11478   0.334E-02    0.537E-02
RMM:  11    -0.619679467309E+03    0.14264E-04   -0.61284E-05 10208   0.242E-02    0.278E-02
RMM:  12    -0.619679469054E+03   -0.17450E-05   -0.32629E-05  7412   0.183E-02
  32 F= -.61967947E+03 E0= -.61960162E+03  d E =-.436854E-02
       N       E                     dE             d eps       ncg     rms          rms(c)
DAV:   1    -0.619639969296E+03    0.39498E-01   -0.13725E+00 10752   0.786E+00    0.541E-01
RMM:   2    -0.619698178450E+03   -0.58209E-01   -0.47468E-01 15174   0.182E+00    0.158E+00
RMM:   3    -0.619687375009E+03    0.10803E-01   -0.50621E-02 12330   0.744E-01    0.104E+00
RMM:   4    -0.619684839733E+03    0.25353E-02   -0.11795E-02 14190   0.326E-01    0.702E-01
RMM:   5    -0.619683130898E+03    0.17088E-02   -0.40110E-03 13643   0.198E-01    0.380E-01
RMM:   6    -0.619682472643E+03    0.65825E-03   -0.18451E-03 13852   0.112E-01    0.284E-01
RMM:   7    -0.619682186015E+03    0.28663E-03   -0.76419E-04 12734   0.865E-02    0.185E-01
RMM:   8    -0.619682246972E+03   -0.60957E-04   -0.84929E-04 13810   0.828E-02    0.200E-01
RMM:   9    -0.619682025755E+03    0.22122E-03   -0.68079E-04 14224   0.731E-02    0.124E-01
RMM:  10    -0.619682050609E+03   -0.24854E-04   -0.29968E-04 12058   0.624E-02    0.143E-01
RMM:  11    -0.619681957372E+03    0.93237E-04   -0.18932E-04 11948   0.407E-02    0.385E-02
RMM:  12    -0.619681965521E+03   -0.81483E-05   -0.12974E-04 11245   0.260E-02    0.365E-02
RMM:  13    -0.619681970900E+03   -0.53794E-05   -0.65477E-05  9937   0.211E-02
  33 F= -.61968197E+03 E0= -.61960426E+03  d E =-.250185E-02
       N       E                     dE             d eps       ncg     rms          rms(c)
DAV:   1    -0.619669352221E+03    0.12613E-01   -0.40666E-01 10848   0.430E+00    0.297E-01
RMM:   2    -0.619687056561E+03   -0.17704E-01   -0.14448E-01 15203   0.101E+00    0.866E-01
RMM:   3    -0.619683919479E+03    0.31371E-02   -0.16044E-02 12344   0.407E-01    0.565E-01
RMM:   4    -0.619683148545E+03    0.77093E-03   -0.36061E-03 13824   0.181E-01    0.381E-01
RMM:   5    -0.619682661353E+03    0.48719E-03   -0.12657E-03 12938   0.110E-01    0.212E-01
RMM:   6    -0.619682479081E+03    0.18227E-03   -0.59672E-04 12713   0.624E-02    0.161E-01
RMM:   7    -0.619682388758E+03    0.90323E-04   -0.26561E-04 12008   0.509E-02    0.986E-02
RMM:   8    -0.619682414515E+03   -0.25758E-04   -0.28623E-04 12774   0.473E-02    0.109E-01
RMM:   9    -0.619682358626E+03    0.55889E-04   -0.22088E-04 12993   0.438E-02    0.745E-02
RMM:  10    -0.619682361809E+03   -0.31826E-05   -0.10865E-04 11171   0.374E-02    0.747E-02
RMM:  11    -0.619682337863E+03    0.23946E-04   -0.73101E-05 10702   0.255E-02    0.194E-02
RMM:  12    -0.619682342681E+03   -0.48177E-05   -0.53413E-05  9339   0.180E-02
  34 F= -.61968234E+03 E0= -.61960473E+03  d E =-.287363E-02
       N       E                     dE             d eps       ncg     rms          rms(c)
DAV:   1    -0.619663170734E+03    0.19167E-01   -0.96019E-01 11208   0.608E+00    0.539E-01
RMM:   2    -0.619703263893E+03   -0.40093E-01   -0.28938E-01 14557   0.157E+00    0.163E+00
RMM:   3    -0.619689829920E+03    0.13434E-01   -0.32946E-02 12786   0.654E-01    0.100E+00
RMM:   4    -0.619686677974E+03    0.31519E-02   -0.95003E-03 14065   0.303E-01    0.673E-01
RMM:   5    -0.619685140810E+03    0.15372E-02   -0.33206E-03 13317   0.190E-01    0.359E-01
RMM:   6    -0.619684554405E+03    0.58641E-03   -0.16076E-03 13861   0.113E-01    0.284E-01
RMM:   7    -0.619684294081E+03    0.26032E-03   -0.80737E-04 12784   0.930E-02    0.200E-01
RMM:   8    -0.619684401949E+03   -0.10787E-03   -0.93548E-04 13800   0.900E-02    0.256E-01
RMM:   9    -0.619684132616E+03    0.26933E-03   -0.49464E-04 12518   0.781E-02    0.133E-01
RMM:  10    -0.619684091638E+03    0.40978E-04   -0.37501E-04 12848   0.520E-02    0.908E-02
RMM:  11    -0.619684053952E+03    0.37686E-04   -0.16518E-04 11870   0.406E-02    0.628E-02
RMM:  12    -0.619684042943E+03    0.11009E-04   -0.11146E-04 10890   0.247E-02    0.235E-02
RMM:  13    -0.619684043693E+03   -0.74990E-06   -0.68678E-05  9881   0.194E-02
  35 F= -.61968404E+03 E0= -.61960642E+03  d E =-.170101E-02
       N       E                     dE             d eps       ncg     rms          rms(c)
DAV:   1    -0.619683325346E+03    0.71760E-03   -0.37734E-02 11976   0.120E+00    0.110E-01
RMM:   2    -0.619685014456E+03   -0.16891E-02   -0.11223E-02 14391   0.312E-01    0.355E-01
RMM:   3    -0.619684373326E+03    0.64113E-03   -0.13260E-03 11479   0.136E-01    0.210E-01
RMM:   4    -0.619684233738E+03    0.13959E-03   -0.40654E-04 12036   0.665E-02    0.135E-01
RMM:   5    -0.619684169504E+03    0.64235E-04   -0.14733E-04 10806   0.407E-02    0.672E-02
RMM:   6    -0.619684155482E+03    0.14022E-04   -0.74649E-05  9880   0.268E-02    0.614E-02
RMM:   7    -0.619684141080E+03    0.14402E-04   -0.36540E-05  7917   0.218E-02    0.353E-02
RMM:   8    -0.619684148175E+03   -0.70955E-05   -0.42237E-05  8280   0.221E-02
  36 F= -.61968415E+03 E0= -.61960651E+03  d E =-.180549E-02
       N       E                     dE             d eps       ncg     rms          rms(c)
DAV:   1    -0.619672903560E+03    0.11238E-01   -0.51115E-01 10080   0.414E+00    0.194E-01
RMM:   2    -0.619685628399E+03   -0.12725E-01   -0.12616E-01 15222   0.981E-01    0.364E-01
RMM:   3    -0.619685798016E+03   -0.16962E-03   -0.11474E-02 12783   0.361E-01    0.310E-01
RMM:   4    -0.619685835750E+03   -0.37734E-04   -0.26419E-03 13715   0.158E-01    0.251E-01
RMM:   5    -0.619685520788E+03    0.31496E-03   -0.79797E-04 13224   0.916E-02    0.118E-01
RMM:   6    -0.619685500958E+03    0.19830E-04   -0.42917E-04 12581   0.443E-02    0.801E-02
RMM:   7    -0.619685512554E+03   -0.11596E-04   -0.19502E-04 11921   0.418E-02    0.101E-01
RMM:   8    -0.619685497039E+03    0.15515E-04   -0.17280E-04 11763   0.376E-02    0.879E-02
RMM:   9    -0.619685461321E+03    0.35718E-04   -0.13892E-04 11951   0.347E-02    0.434E-02
RMM:  10    -0.619685468850E+03   -0.75294E-05   -0.80055E-05 10913   0.284E-02
  37 F= -.61968547E+03 E0= -.61960794E+03  d E =-.132068E-02
       N       E                     dE             d eps       ncg     rms          rms(c)
DAV:   1    -0.619621474618E+03    0.63987E-01   -0.26298E+00 10080   0.939E+00    0.440E-01
RMM:   2    -0.619685476316E+03   -0.64002E-01   -0.64780E-01 15224   0.222E+00    0.687E-01
RMM:   3    -0.619688297994E+03   -0.28217E-02   -0.58879E-02 13143   0.801E-01    0.782E-01
RMM:   4    -0.619688014417E+03    0.28358E-03   -0.13567E-02 14356   0.355E-01    0.575E-01
RMM:   5    -0.619686154700E+03    0.18597E-02   -0.41998E-03 13986   0.196E-01    0.190E-01
RMM:   6    -0.619686216301E+03   -0.61601E-04   -0.20569E-03 13423   0.950E-02    0.192E-01
RMM:   7    -0.619686200561E+03    0.15739E-04   -0.99269E-04 13327   0.923E-02    0.195E-01
RMM:   8    -0.619686253427E+03   -0.52866E-04   -0.91652E-04 13355   0.834E-02    0.246E-01
RMM:   9    -0.619686022854E+03    0.23057E-03   -0.61194E-04 13273   0.749E-02    0.104E-01
RMM:  10    -0.619686076527E+03   -0.53673E-04   -0.43585E-04 12535   0.553E-02    0.123E-01
RMM:  11    -0.619686023811E+03    0.52716E-04   -0.20405E-04 11572   0.435E-02    0.608E-02
RMM:  12    -0.619686017302E+03    0.65089E-05   -0.17160E-04 11279   0.278E-02    0.347E-02
RMM:  13    -0.619686020695E+03   -0.33930E-05   -0.10309E-04 10949   0.236E-02    0.288E-02
RMM:  14    -0.619686021421E+03   -0.72613E-06   -0.70556E-05 10707   0.194E-02
  38 F= -.61968602E+03 E0= -.61960889E+03  d E =-.187325E-02
       N       E                     dE             d eps       ncg     rms          rms(c)
DAV:   1    -0.619678449700E+03    0.75710E-02   -0.31833E-01 10080   0.327E+00    0.153E-01
RMM:   2    -0.619686176781E+03   -0.77271E-02   -0.77936E-02 15154   0.775E-01    0.243E-01
RMM:   3    -0.619686522188E+03   -0.34541E-03   -0.69904E-03 12274   0.281E-01    0.269E-01
RMM:   4    -0.619686456468E+03    0.65720E-04   -0.14480E-03 13031   0.125E-01    0.190E-01
RMM:   5    -0.619686252394E+03    0.20407E-03   -0.42535E-04 12695   0.676E-02    0.697E-02
RMM:   6    -0.619686250482E+03    0.19123E-05   -0.20034E-04 11863   0.329E-02    0.620E-02
RMM:   7    -0.619686247382E+03    0.30999E-05   -0.93807E-05 10847   0.334E-02
  39 F= -.61968625E+03 E0= -.61960901E+03  d E =-.209921E-02
       N       E                     dE             d eps       ncg     rms          rms(c)
DAV:   1    -0.619678373413E+03    0.78771E-02   -0.31969E-01  9744   0.335E+00    0.179E-01
RMM:   2    -0.619687610132E+03   -0.92367E-02   -0.89238E-02 15210   0.783E-01    0.382E-01
RMM:   3    -0.619687476887E+03    0.13325E-03   -0.79745E-03 11689   0.312E-01    0.327E-01
RMM:   4    -0.619687396830E+03    0.80057E-04   -0.17612E-03 12946   0.134E-01    0.266E-01
RMM:   5    -0.619687144594E+03    0.25224E-03   -0.52430E-04 12292   0.815E-02    0.140E-01
RMM:   6    -0.619687053153E+03    0.91441E-04   -0.21418E-04 11933   0.405E-02    0.805E-02
RMM:   7    -0.619687032435E+03    0.20718E-04   -0.10756E-04 11117   0.283E-02    0.499E-02
RMM:   8    -0.619687033972E+03   -0.15375E-05   -0.76613E-05 10650   0.255E-02
  40 F= -.61968703E+03 E0= -.61960997E+03  d E =-.786590E-03
       N       E                     dE             d eps       ncg     rms          rms(c)
DAV:   1    -0.619610587644E+03    0.76445E-01   -0.28456E+00  9744   0.100E+01    0.498E-01
RMM:   2    -0.619689787784E+03   -0.79200E-01   -0.79515E-01 15252   0.234E+00    0.838E-01
RMM:   3    -0.619691985243E+03   -0.21975E-02   -0.69522E-02 12743   0.870E-01    0.939E-01
RMM:   4    -0.619690756937E+03    0.12283E-02   -0.15209E-02 14084   0.380E-01    0.623E-01
RMM:   5    -0.619689005461E+03    0.17515E-02   -0.47011E-03 14171   0.208E-01    0.341E-01
RMM:   6    -0.619688679301E+03    0.32616E-03   -0.20353E-03 13600   0.105E-01    0.219E-01
RMM:   7    -0.619688612391E+03    0.66910E-04   -0.10229E-03 13052   0.854E-02    0.192E-01
RMM:   8    -0.619688768676E+03   -0.15629E-03   -0.90814E-04 13171   0.872E-02    0.278E-01
RMM:   9    -0.619688345846E+03    0.42283E-03   -0.79727E-04 14080   0.854E-02    0.816E-02
RMM:  10    -0.619688443643E+03   -0.97797E-04   -0.50165E-04 13170   0.574E-02    0.139E-01
RMM:  11    -0.619688384763E+03    0.58880E-04   -0.23081E-04 11557   0.513E-02    0.753E-02
RMM:  12    -0.619688363463E+03    0.21300E-04   -0.19136E-04 11583   0.295E-02    0.248E-02
RMM:  13    -0.619688373825E+03   -0.10362E-04   -0.10950E-04 11037   0.256E-02    0.406E-02
RMM:  14    -0.619688370698E+03    0.31270E-05   -0.66059E-05 10588   0.210E-02
  41 F= -.61968837E+03 E0= -.61961170E+03  d E =-.212332E-02
       N       E                     dE             d eps       ncg     rms          rms(c)
DAV:   1    -0.619679650181E+03    0.87236E-02   -0.46442E-01 10440   0.404E+00    0.403E-01
RMM:   2    -0.619702765381E+03   -0.23115E-01   -0.14560E-01 14236   0.113E+00    0.136E+00
RMM:   3    -0.619692523860E+03    0.10242E-01   -0.17723E-02 12833   0.485E-01    0.688E-01
RMM:   4    -0.619691198532E+03    0.13253E-02   -0.52392E-03 13818   0.231E-01    0.520E-01
RMM:   5    -0.619690195279E+03    0.10033E-02   -0.17477E-03 13094   0.139E-01    0.248E-01
RMM:   6    -0.619689955257E+03    0.24002E-03   -0.81105E-04 12905   0.821E-02    0.215E-01
RMM:   7    -0.619689774839E+03    0.18042E-03   -0.43103E-04 11835   0.689E-02    0.131E-01
RMM:   8    -0.619689862520E+03   -0.87681E-04   -0.47388E-04 13153   0.641E-02    0.198E-01
RMM:   9    -0.619689690853E+03    0.17167E-03   -0.25694E-04 11435   0.582E-02    0.786E-02
RMM:  10    -0.619689688913E+03    0.19397E-05   -0.21212E-04 12407   0.375E-02    0.720E-02
RMM:  11    -0.619689665643E+03    0.23270E-04   -0.83365E-05 10426   0.342E-02    0.441E-02
RMM:  12    -0.619689660902E+03    0.47406E-05   -0.63160E-05  9412   0.190E-02
  42 F= -.61968966E+03 E0= -.61961303E+03  d E =-.129020E-02
       N       E                     dE             d eps       ncg     rms          rms(c)
DAV:   1    -0.619687968259E+03    0.16974E-02   -0.91854E-02 10992   0.180E+00    0.176E-01
RMM:   2    -0.619692304447E+03   -0.43362E-02   -0.28775E-02 14291   0.496E-01    0.566E-01
RMM:   3    -0.619690572272E+03    0.17322E-02   -0.33801E-03 12319   0.213E-01    0.325E-01
RMM:   4    -0.619690244084E+03    0.32819E-03   -0.10277E-03 12762   0.102E-01    0.220E-01
RMM:   5    -0.619690068875E+03    0.17521E-03   -0.35026E-04 11618   0.638E-02    0.109E-01
RMM:   6    -0.619690021079E+03    0.47796E-04   -0.16783E-04 11345   0.369E-02    0.891E-02
RMM:   7    -0.619689992972E+03    0.28107E-04   -0.85070E-05  9797   0.317E-02    0.573E-02
RMM:   8    -0.619690006347E+03   -0.13375E-04   -0.93871E-05 10225   0.296E-02    0.794E-02
RMM:   9    -0.619689979704E+03    0.26643E-04   -0.49968E-05  8509   0.282E-02    0.360E-02
RMM:  10    -0.619689978976E+03    0.72783E-06   -0.47964E-05  8745   0.210E-02
  43 F= -.61968998E+03 E0= -.61961335E+03  d E =-.160828E-02
       N       E                     dE             d eps       ncg     rms          rms(c)
DAV:   1    -0.619682147582E+03    0.78321E-02   -0.36614E-01 10416   0.359E+00    0.351E-01
RMM:   2    -0.619699326598E+03   -0.17179E-01   -0.11483E-01 14308   0.989E-01    0.113E+00
RMM:   3    -0.619692533855E+03    0.67927E-02   -0.13367E-02 12746   0.422E-01    0.646E-01
RMM:   4    -0.619691233216E+03    0.13006E-02   -0.39939E-03 13569   0.201E-01    0.440E-01
RMM:   5    -0.619690525176E+03    0.70804E-03   -0.13312E-03 12587   0.122E-01    0.219E-01
RMM:   6    -0.619690326094E+03    0.19908E-03   -0.60958E-04 12651   0.710E-02    0.183E-01
RMM:   7    -0.619690199230E+03    0.12686E-03   -0.31909E-04 11607   0.590E-02    0.113E-01
RMM:   8    -0.619690244394E+03   -0.45164E-04   -0.36531E-04 13167   0.559E-02    0.158E-01
RMM:   9    -0.619690144118E+03    0.10028E-03   -0.18588E-04 11101   0.495E-02    0.737E-02
RMM:  10    -0.619690140608E+03    0.35107E-05   -0.15995E-04 11919   0.339E-02    0.645E-02
RMM:  11    -0.619690122112E+03    0.18496E-04   -0.64498E-05  9686   0.298E-02    0.371E-02
RMM:  12    -0.619690119310E+03    0.28011E-05   -0.51008E-05  8674   0.186E-02
  44 F= -.61969012E+03 E0= -.61961353E+03  d E =-.174861E-02
       N       E                     dE             d eps       ncg     rms          rms(c)
DAV:   1    -0.619689369627E+03    0.75248E-03   -0.36526E-02 11136   0.113E+00    0.110E-01
RMM:   2    -0.619691007775E+03   -0.16381E-02   -0.11420E-02 14198   0.312E-01    0.339E-01
RMM:   3    -0.619690380846E+03    0.62693E-03   -0.12997E-03 11610   0.131E-01    0.197E-01
RMM:   4    -0.619690260705E+03    0.12014E-03   -0.38420E-04 11976   0.661E-02    0.137E-01
RMM:   5    -0.619690193598E+03    0.67108E-04   -0.12712E-04 10226   0.415E-02    0.741E-02
RMM:   6    -0.619690167171E+03    0.26427E-04   -0.51647E-05  8146   0.258E-02    0.599E-02
RMM:   7    -0.619690152955E+03    0.14216E-04   -0.26654E-05  6363   0.214E-02    0.410E-02
RMM:   8    -0.619690157753E+03   -0.47980E-05   -0.33649E-05  6689   0.238E-02
  45 F= -.61969016E+03 E0= -.61961357E+03  d E =-.178705E-02
       N       E                     dE             d eps       ncg     rms          rms(c)
DAV:   1    -0.619686040636E+03    0.41123E-02   -0.17111E-01  9744   0.246E+00    0.124E-01
RMM:   2    -0.619690861986E+03   -0.48214E-02   -0.47953E-02 15200   0.570E-01    0.222E-01
RMM:   3    -0.619690909286E+03   -0.47299E-04   -0.38748E-03 12069   0.209E-01    0.236E-01
RMM:   4    -0.619690842243E+03    0.67043E-04   -0.90636E-04 12614   0.969E-02    0.161E-01
RMM:   5    -0.619690704760E+03    0.13748E-03   -0.27134E-04 12429   0.536E-02    0.665E-02
RMM:   6    -0.619690700875E+03    0.38853E-05   -0.11697E-04 11428   0.287E-02    0.609E-02
RMM:   7    -0.619690690119E+03    0.10756E-04   -0.60344E-05 10414   0.230E-02    0.361E-02
RMM:   8    -0.619690691412E+03   -0.12933E-05   -0.55499E-05 10197   0.221E-02
  46 F= -.61969069E+03 E0= -.61961423E+03  d E =-.533659E-03
       N       E                     dE             d eps       ncg     rms          rms(c)
DAV:   1    -0.619649562855E+03    0.41127E-01   -0.15306E+00  9744   0.737E+00    0.361E-01
RMM:   2    -0.619692524587E+03   -0.42962E-01   -0.43252E-01 15257   0.170E+00    0.601E-01
RMM:   3    -0.619693258158E+03   -0.73357E-03   -0.35339E-02 13059   0.636E-01    0.632E-01
RMM:   4    -0.619692898249E+03    0.35991E-03   -0.82292E-03 13873   0.278E-01    0.475E-01
RMM:   5    -0.619691953873E+03    0.94438E-03   -0.24930E-03 13565   0.163E-01    0.278E-01
RMM:   6    -0.619691717747E+03    0.23613E-03   -0.13196E-03 13233   0.811E-02    0.148E-01
RMM:   7    -0.619691696130E+03    0.21617E-04   -0.64385E-04 12726   0.632E-02    0.139E-01
RMM:   8    -0.619691712828E+03   -0.16698E-04   -0.49736E-04 12464   0.658E-02    0.167E-01
RMM:   9    -0.619691566877E+03    0.14595E-03   -0.46932E-04 13283   0.638E-02    0.808E-02
RMM:  10    -0.619691583020E+03   -0.16143E-04   -0.26759E-04 12283   0.458E-02    0.827E-02
RMM:  11    -0.619691568220E+03    0.14800E-04   -0.14180E-04 11522   0.368E-02    0.517E-02
RMM:  12    -0.619691565677E+03    0.25425E-05   -0.10431E-04 11124   0.251E-02    0.339E-02
RMM:  13    -0.619691567349E+03   -0.16719E-05   -0.64776E-05 10606   0.211E-02
  47 F= -.61969157E+03 E0= -.61961529E+03  d E =-.140960E-02
       N       E                     dE             d eps       ncg     rms          rms(c)
DAV:   1    -0.619688976575E+03    0.25891E-02   -0.95976E-02  9888   0.184E+00    0.913E-02
RMM:   2    -0.619691725089E+03   -0.27485E-02   -0.27265E-02 15155   0.427E-01    0.179E-01
RMM:   3    -0.619691719932E+03    0.51570E-05   -0.22482E-03 12186   0.164E-01    0.168E-01
RMM:   4    -0.619691693894E+03    0.26038E-04   -0.59667E-04 12706   0.744E-02    0.114E-01
RMM:   5    -0.619691632804E+03    0.61090E-04   -0.19009E-04 12239   0.445E-02    0.546E-02
RMM:   6    -0.619691627650E+03    0.51536E-05   -0.10771E-04 11240   0.248E-02    0.357E-02
RMM:   7    -0.619691629269E+03   -0.16192E-05   -0.56872E-05 10316   0.218E-02
  48 F= -.61969163E+03 E0= -.61961543E+03  d E =-.147152E-02
       N       E                     dE             d eps       ncg     rms          rms(c)
DAV:   1    -0.619691107708E+03    0.51994E-03   -0.77688E-02 12504   0.157E+00    0.194E-01
RMM:   2    -0.619694959345E+03   -0.38516E-02   -0.21492E-02 13482   0.478E-01    0.589E-01
RMM:   3    -0.619692810795E+03    0.21485E-02   -0.34438E-03 12365   0.214E-01    0.283E-01
RMM:   4    -0.619692417728E+03    0.39307E-03   -0.90544E-04 12826   0.944E-02    0.142E-01
RMM:   5    -0.619692395155E+03    0.22573E-04   -0.31287E-04 11605   0.598E-02    0.144E-01
RMM:   6    -0.619692312450E+03    0.82705E-04   -0.17396E-04 11175   0.398E-02    0.996E-02
RMM:   7    -0.619692282898E+03    0.29552E-04   -0.94398E-05  9396   0.340E-02    0.817E-02
RMM:   8    -0.619692293583E+03   -0.10686E-04   -0.94681E-05  9197   0.322E-02    0.903E-02
RMM:   9    -0.619692273068E+03    0.20516E-04   -0.68768E-05  8370   0.297E-02    0.698E-02
RMM:  10    -0.619692254265E+03    0.18802E-04   -0.37740E-05  6953   0.244E-02    0.305E-02
RMM:  11    -0.619692252401E+03    0.18645E-05   -0.20981E-05  6372   0.193E-02
  49 F= -.61969225E+03 E0= -.61961615E+03  d E =-.623131E-03
       N       E                     dE             d eps       ncg     rms          rms(c)
DAV:   1    -0.619689619429E+03    0.26348E-02   -0.20633E-01 12360   0.256E+00    0.320E-01
RMM:   2    -0.619700256656E+03   -0.10637E-01   -0.56988E-02 13384   0.781E-01    0.100E+00
RMM:   3    -0.619694818967E+03    0.54377E-02   -0.92088E-03 12550   0.347E-01    0.619E-01
RMM:   4    -0.619693445112E+03    0.13739E-02   -0.26357E-03 13511   0.160E-01    0.372E-01
RMM:   5    -0.619692912975E+03    0.53214E-03   -0.92348E-04 12179   0.100E-01    0.178E-01
RMM:   6    -0.619692743868E+03    0.16911E-03   -0.49457E-04 12714   0.603E-02    0.131E-01
RMM:   7    -0.619692677986E+03    0.65882E-04   -0.22768E-04 11207   0.518E-02    0.101E-01
RMM:   8    -0.619692689804E+03   -0.11818E-04   -0.25713E-04 12316   0.489E-02    0.104E-01
RMM:   9    -0.619692628220E+03    0.61584E-04   -0.17486E-04 11726   0.396E-02    0.467E-02
RMM:  10    -0.619692649500E+03   -0.21280E-04   -0.72692E-05  9462   0.313E-02    0.784E-02
RMM:  11    -0.619692621317E+03    0.28183E-04   -0.36221E-05  7464   0.223E-02    0.172E-02
RMM:  12    -0.619692624419E+03   -0.31013E-05   -0.31098E-05  7132   0.158E-02
  50 F= -.61969262E+03 E0= -.61961668E+03  d E =-.995149E-03
       N       E                     dE             d eps       ncg     rms          rms(c)
DAV:   1    -0.619691457057E+03    0.11643E-02   -0.12165E-01 12576   0.202E+00    0.212E-01
RMM:   2    -0.619696334422E+03   -0.48774E-02   -0.30936E-02 13993   0.534E-01    0.637E-01
RMM:   3    -0.619694109648E+03    0.22248E-02   -0.38964E-03 12657   0.240E-01    0.378E-01
RMM:   4    -0.619693612677E+03    0.49697E-03   -0.13563E-03 13171   0.113E-01    0.245E-01
RMM:   5    -0.619693399752E+03    0.21292E-03   -0.45830E-04 11834   0.719E-02    0.136E-01
RMM:   6    -0.619693343262E+03    0.56489E-04   -0.26314E-04 12223   0.480E-02    0.135E-01
RMM:   7    -0.619693276069E+03    0.67193E-04   -0.13527E-04 10493   0.409E-02    0.802E-02
RMM:   8    -0.619693282599E+03   -0.65300E-05   -0.16879E-04 11712   0.390E-02    0.869E-02
RMM:   9    -0.619693253172E+03    0.29427E-04   -0.73798E-05  8760   0.336E-02    0.556E-02
RMM:  10    -0.619693244967E+03    0.82057E-05   -0.49789E-05  8215   0.242E-02
  51 F= -.61969324E+03 E0= -.61961731E+03  d E =-.620548E-03
       N       E                     dE             d eps       ncg     rms          rms(c)
DAV:   1    -0.619693043495E+03    0.20968E-03   -0.22549E-02 12600   0.872E-01    0.945E-02
RMM:   2    -0.619694118825E+03   -0.10753E-02   -0.58890E-03 13689   0.232E-01    0.324E-01
RMM:   3    -0.619693547532E+03    0.57129E-03   -0.76761E-04 11064   0.111E-01    0.163E-01
RMM:   4    -0.619693448438E+03    0.99094E-04   -0.27328E-04 11211   0.546E-02    0.104E-01
RMM:   5    -0.619693412179E+03    0.36259E-04   -0.95039E-05  9566   0.330E-02    0.623E-02
RMM:   6    -0.619693406266E+03    0.59133E-05   -0.44961E-05  7721   0.241E-02
  52 F= -.61969341E+03 E0= -.61961751E+03  d E =-.781847E-03
       N       E                     dE             d eps       ncg     rms          rms(c)
DAV:   1    -0.619692238417E+03    0.11738E-02   -0.90609E-02 12864   0.174E+00    0.198E-01
RMM:   2    -0.619696645293E+03   -0.44069E-02   -0.22796E-02 13598   0.474E-01    0.678E-01
RMM:   3    -0.619694209732E+03    0.24356E-02   -0.32977E-03 12335   0.219E-01    0.348E-01
RMM:   4    -0.619693843768E+03    0.36596E-03   -0.10978E-03 12739   0.105E-01    0.247E-01
RMM:   5    -0.619693593158E+03    0.25061E-03   -0.39458E-04 11718   0.644E-02    0.107E-01
RMM:   6    -0.619693564035E+03    0.29124E-04   -0.22156E-04 11837   0.437E-02    0.124E-01
RMM:   7    -0.619693505794E+03    0.58241E-04   -0.11311E-04  9616   0.373E-02    0.704E-02
RMM:   8    -0.619693513940E+03   -0.81464E-05   -0.14140E-04 11336   0.356E-02    0.805E-02
RMM:   9    -0.619693488209E+03    0.25731E-04   -0.57854E-05  8405   0.296E-02    0.443E-02
RMM:  10    -0.619693482742E+03    0.54662E-05   -0.40335E-05  8065   0.212E-02
  53 F= -.61969348E+03 E0= -.61961758E+03  d E =-.858324E-03
       N       E                     dE             d eps       ncg     rms          rms(c)
DAV:   1    -0.619693439761E+03    0.48448E-04   -0.33996E-03 13224   0.335E-01    0.408E-02
RMM:   2    -0.619693688718E+03   -0.24896E-03   -0.87166E-04 12455   0.958E-02    0.187E-01
RMM:   3    -0.619693501200E+03    0.18752E-03   -0.14448E-04  8846   0.528E-02    0.509E-02
RMM:   4    -0.619693489327E+03    0.11873E-04   -0.41008E-05  6990   0.271E-02    0.406E-02
RMM:   5    -0.619693485242E+03    0.40851E-05   -0.17629E-05  5842   0.212E-02
  54 F= -.61969349E+03 E0= -.61961758E+03  d E =-.860823E-03
       N       E                     dE             d eps       ncg     rms          rms(c)
DAV:   1    -0.619691154084E+03    0.23352E-02   -0.11062E-01 10176   0.203E+00    0.914E-02
RMM:   2    -0.619694009765E+03   -0.28557E-02   -0.26620E-02 15042   0.427E-01    0.271E-01
RMM:   3    -0.619693841719E+03    0.16805E-03   -0.19712E-03 11448   0.177E-01    0.158E-01
RMM:   4    -0.619693875582E+03   -0.33863E-04   -0.68841E-04 12410   0.764E-02    0.135E-01
RMM:   5    -0.619693785145E+03    0.90438E-04   -0.15727E-04 10808   0.418E-02    0.615E-02
RMM:   6    -0.619693769826E+03    0.15319E-04   -0.74888E-05 10175   0.255E-02    0.388E-02
RMM:   7    -0.619693769215E+03    0.61112E-06   -0.37587E-05  8007   0.196E-02
  55 F= -.61969377E+03 E0= -.61961793E+03  d E =-.283973E-03
       N       E                     dE             d eps       ncg     rms          rms(c)
DAV:   1    -0.619692620581E+03    0.11492E-02   -0.53137E-02 10152   0.141E+00    0.678E-02
RMM:   2    -0.619694237709E+03   -0.16171E-02   -0.13130E-02 14986   0.298E-01    0.267E-01
RMM:   3    -0.619693916949E+03    0.32076E-03   -0.10470E-03 10817   0.133E-01    0.105E-01
RMM:   4    -0.619693909813E+03    0.71365E-05   -0.39511E-04 12410   0.535E-02    0.630E-02
RMM:   5    -0.619693889540E+03    0.20273E-04   -0.87885E-05 10426   0.299E-02    0.397E-02
RMM:   6    -0.619693887419E+03    0.21201E-05   -0.44611E-05  8865   0.193E-02
  56 F= -.61969389E+03 E0= -.61961804E+03  d E =-.402178E-03
       N       E                     dE             d eps       ncg     rms          rms(c)
DAV:   1    -0.619688846493E+03    0.50430E-02   -0.21378E-01 10080   0.282E+00    0.122E-01
RMM:   2    -0.619694613666E+03   -0.57672E-02   -0.51594E-02 15104   0.591E-01    0.440E-01
RMM:   3    -0.619694043783E+03    0.56988E-03   -0.39009E-03 11769   0.253E-01    0.192E-01
RMM:   4    -0.619694096805E+03   -0.53022E-04   -0.13591E-03 13159   0.102E-01    0.161E-01
RMM:   5    -0.619693975705E+03    0.12110E-03   -0.32749E-04 12138   0.603E-02    0.862E-02
RMM:   6    -0.619693954858E+03    0.20847E-04   -0.17704E-04 11620   0.316E-02    0.567E-02
RMM:   7    -0.619693952983E+03    0.18748E-05   -0.85528E-05 10680   0.261E-02
  57 F= -.61969395E+03 E0= -.61961818E+03  d E =-.467741E-03
       N       E                     dE             d eps       ncg     rms          rms(c)
DAV:   1    -0.619689273806E+03    0.46811E-02   -0.19747E-01  9744   0.267E+00    0.136E-01
RMM:   2    -0.619695634903E+03   -0.63611E-02   -0.52220E-02 15167   0.626E-01    0.514E-01
RMM:   3    -0.619694460052E+03    0.11749E-02   -0.51699E-03 12423   0.244E-01    0.168E-01
RMM:   4    -0.619694549050E+03   -0.88998E-04   -0.12997E-03 13358   0.986E-02    0.173E-01
RMM:   5    -0.619694437766E+03    0.11128E-03   -0.33381E-04 12329   0.634E-02    0.117E-01
RMM:   6    -0.619694384275E+03    0.53491E-04   -0.18622E-04 11776   0.342E-02    0.519E-02
RMM:   7    -0.619694428612E+03   -0.44337E-04   -0.12120E-04 11241   0.320E-02    0.115E-01
RMM:   8    -0.619694371208E+03    0.57403E-04   -0.10820E-04 11221   0.304E-02    0.374E-02
RMM:   9    -0.619694367756E+03    0.34522E-05   -0.72215E-05 10711   0.223E-02
  58 F= -.61969437E+03 E0= -.61961865E+03  d E =-.414773E-03
       N       E                     dE             d eps       ncg     rms          rms(c)
DAV:   1    -0.619675711048E+03    0.18660E-01   -0.73654E-01  9792   0.515E+00    0.234E-01
RMM:   2    -0.619694324504E+03   -0.18613E-01   -0.18826E-01 15172   0.118E+00    0.413E-01
RMM:   3    -0.619695179183E+03   -0.85468E-03   -0.16912E-02 13052   0.436E-01    0.423E-01
RMM:   4    -0.619695033113E+03    0.14607E-03   -0.39438E-03 13946   0.182E-01    0.319E-01
RMM:   5    -0.619694625973E+03    0.40714E-03   -0.11072E-03 13103   0.109E-01    0.175E-01
RMM:   6    -0.619694535374E+03    0.90599E-04   -0.65171E-04 12735   0.566E-02    0.923E-02
RMM:   7    -0.619694568378E+03   -0.33004E-04   -0.32877E-04 12332   0.506E-02    0.140E-01
RMM:   8    -0.619694497634E+03    0.70744E-04   -0.28588E-04 12315   0.489E-02    0.885E-02
RMM:   9    -0.619694473148E+03    0.24486E-04   -0.22491E-04 12426   0.415E-02    0.659E-02
RMM:  10    -0.619694473360E+03   -0.21196E-06   -0.11827E-04 11359   0.346E-02    0.580E-02
RMM:  11    -0.619694465848E+03    0.75123E-05   -0.76204E-05 10746   0.250E-02
  59 F= -.61969447E+03 E0= -.61961878E+03  d E =-.512865E-03
       N       E                     dE             d eps       ncg     rms          rms(c)
DAV:   1    -0.619692703842E+03    0.17695E-02   -0.84155E-02 10128   0.172E+00    0.777E-02
RMM:   2    -0.619694713441E+03   -0.20096E-02   -0.18930E-02 15009   0.367E-01    0.206E-01
RMM:   3    -0.619694594433E+03    0.11901E-03   -0.13730E-03 11026   0.159E-01    0.108E-01
RMM:   4    -0.619694621846E+03   -0.27413E-04   -0.41717E-04 11945   0.643E-02    0.109E-01
RMM:   5    -0.619694568507E+03    0.53339E-04   -0.93206E-05  9237   0.362E-02    0.566E-02
RMM:   6    -0.619694557523E+03    0.10984E-04   -0.42276E-05  7955   0.222E-02    0.391E-02
RMM:   7    -0.619694553090E+03    0.44333E-05   -0.22098E-05  6320   0.187E-02
  60 F= -.61969455E+03 E0= -.61961886E+03  d E =-.600107E-03
       N       E                     dE             d eps       ncg     rms          rms(c)
DAV:   1    -0.619689649685E+03    0.49078E-02   -0.30308E-01 10920   0.330E+00    0.332E-01
RMM:   2    -0.619703478272E+03   -0.13829E-01   -0.84282E-02 14170   0.851E-01    0.111E+00
RMM:   3    -0.619696698165E+03    0.67801E-02   -0.97846E-03 12621   0.390E-01    0.550E-01
RMM:   4    -0.619695892026E+03    0.80614E-03   -0.33323E-03 13507   0.179E-01    0.425E-01
RMM:   5    -0.619695250409E+03    0.64162E-03   -0.11425E-03 12543   0.112E-01    0.230E-01
RMM:   6    -0.619695053520E+03    0.19689E-03   -0.57619E-04 12371   0.762E-02    0.197E-01
RMM:   7    -0.619694899641E+03    0.15388E-03   -0.34883E-04 11744   0.601E-02    0.132E-01
RMM:   8    -0.619694960794E+03   -0.61153E-04   -0.33707E-04 12416   0.585E-02    0.172E-01
RMM:   9    -0.619694830694E+03    0.13010E-03   -0.19188E-04 11235   0.489E-02    0.797E-02
RMM:  10    -0.619694810552E+03    0.20142E-04   -0.14055E-04 11487   0.346E-02    0.521E-02
RMM:  11    -0.619694789458E+03    0.21094E-04   -0.57654E-05  9616   0.244E-02    0.169E-02
RMM:  12    -0.619694791184E+03   -0.17261E-05   -0.29277E-05  7601   0.169E-02
  61 F= -.61969479E+03 E0= -.61961921E+03  d E =-.238094E-03
       N       E                     dE             d eps       ncg     rms          rms(c)
DAV:   1    -0.619694643774E+03    0.14568E-03   -0.92543E-03 11808   0.576E-01    0.578E-02
RMM:   2    -0.619695043610E+03   -0.39984E-03   -0.25604E-03 13853   0.148E-01    0.184E-01
RMM:   3    -0.619694852100E+03    0.19151E-03   -0.28811E-04 10259   0.706E-02    0.931E-02
RMM:   4    -0.619694822970E+03    0.29131E-04   -0.96861E-05  9366   0.370E-02    0.665E-02
RMM:   5    -0.619694809770E+03    0.13200E-04   -0.31936E-05  6486   0.247E-02    0.470E-02
RMM:   6    -0.619694802453E+03    0.73168E-05   -0.18803E-05  5867   0.212E-02
  62 F= -.61969480E+03 E0= -.61961924E+03  d E =-.249363E-03
       N       E                     dE             d eps       ncg     rms          rms(c)
DAV:   1    -0.619691864299E+03    0.29455E-02   -0.13271E-01 10152   0.226E+00    0.140E-01
RMM:   2    -0.619695745579E+03   -0.38813E-02   -0.34756E-02 15154   0.497E-01    0.378E-01
RMM:   3    -0.619695264324E+03    0.48126E-03   -0.28103E-03 11975   0.219E-01    0.255E-01
RMM:   4    -0.619695112602E+03    0.15172E-03   -0.95498E-04 13006   0.957E-02    0.161E-01
RMM:   5    -0.619695048991E+03    0.63611E-04   -0.30263E-04 11805   0.606E-02    0.127E-01
RMM:   6    -0.619694983692E+03    0.65299E-04   -0.14125E-04 11417   0.373E-02    0.827E-02
RMM:   7    -0.619694959647E+03    0.24045E-04   -0.78577E-05 10741   0.253E-02    0.487E-02
RMM:   8    -0.619694964972E+03   -0.53250E-05   -0.75230E-05 10104   0.275E-02
  63 F= -.61969496E+03 E0= -.61961959E+03  d E =-.162519E-03
       N       E                     dE             d eps       ncg     rms          rms(c)
DAV:   1    -0.619694804618E+03    0.15503E-03   -0.67189E-03 11832   0.508E-01    0.536E-02
RMM:   2    -0.619695647946E+03   -0.84333E-03   -0.20831E-03 13189   0.136E-01    0.364E-01
RMM:   3    -0.619694956817E+03    0.69113E-03   -0.35201E-04  9683   0.810E-02    0.384E-02
RMM:   4    -0.619694956910E+03   -0.93278E-07   -0.10602E-04 10393   0.297E-02    0.476E-02
RMM:   5    -0.619694950538E+03    0.63715E-05   -0.25163E-05  6631   0.201E-02
  64 F= -.61969495E+03 E0= -.61961955E+03  d E =-.148086E-03
       N       E                     dE             d eps       ncg     rms          rms(c)
DAV:   1    -0.619694932389E+03    0.24521E-04   -0.10047E-03 13176   0.195E-01    0.273E-02
RMM:   2    -0.619695188266E+03   -0.25588E-03   -0.32557E-04  9958   0.570E-02    0.228E-01
RMM:   3    -0.619694956247E+03    0.23202E-03   -0.74251E-05  7115   0.407E-02    0.313E-02
RMM:   4    -0.619694950065E+03    0.61814E-05   -0.13951E-05  5812   0.166E-02
  65 F= -.61969495E+03 E0= -.61961953E+03  d E =-.147613E-03
       N       E                     dE             d eps       ncg     rms          rms(c)
DAV:   1    -0.619694941490E+03    0.14757E-04   -0.47339E-04 12408   0.138E-01    0.176E-02
RMM:   2    -0.619695020800E+03   -0.79310E-04   -0.15795E-04  9102   0.373E-02    0.111E-01
RMM:   3    -0.619694954534E+03    0.66266E-04   -0.28686E-05  6267   0.277E-02    0.273E-02
RMM:   4    -0.619694949723E+03    0.48107E-05   -0.80023E-06  5206   0.123E-02
  66 F= -.61969495E+03 E0= -.61961953E+03  d E =-.147271E-03
       N       E                     dE             d eps       ncg     rms          rms(c)
DAV:   1    -0.619694949216E+03    0.53175E-05   -0.11954E-04 13032   0.697E-02    0.135E-02
RMM:   2    -0.619695016249E+03   -0.67033E-04   -0.46006E-05  6707   0.245E-02    0.120E-01
RMM:   3    -0.619694952679E+03    0.63570E-04   -0.19880E-05  5977   0.240E-02    0.170E-02
RMM:   4    -0.619694950681E+03    0.19985E-05   -0.35500E-06  4851   0.704E-03
  67 F= -.61969495E+03 E0= -.61961953E+03  d E =-.148228E-03
       N       E                     dE             d eps       ncg     rms          rms(c)
DAV:   1    -0.619694950034E+03    0.26449E-05   -0.19620E-05  6864   0.327E-02    0.621E-03
RMM:   2    -0.619694959553E+03   -0.95184E-05   -0.10784E-05  5668   0.142E-02
  68 F= -.61969496E+03 E0= -.61961953E+03  d E =-.157100E-03
       N       E                     dE             d eps       ncg     rms          rms(c)
DAV:   1    -0.619694951278E+03   -0.12435E-05   -0.35123E-05  6480   0.364E-02    0.777E-03
RMM:   2    -0.619694966976E+03   -0.15698E-04   -0.88803E-06  5700   0.115E-02    0.538E-02
RMM:   3    -0.619694952364E+03    0.14612E-04   -0.61840E-06  4862   0.126E-02    0.152E-02
RMM:   4    -0.619694951056E+03    0.13079E-05   -0.10029E-06  4405   0.415E-03
  69 F= -.61969495E+03 E0= -.61961954E+03  d E =-.148603E-03
       N       E                     dE             d eps       ncg     rms          rms(c)
DAV:   1    -0.619694950902E+03    0.14621E-05   -0.21772E-06  5712   0.111E-02    0.222E-03
RMM:   2    -0.619694952685E+03   -0.17835E-05   -0.12903E-06  4594   0.493E-03
  70 F= -.61969495E+03 E0= -.61961954E+03  d E =-.150233E-03
       N       E                     dE             d eps       ncg     rms          rms(c)
DAV:   1    -0.619694951173E+03   -0.27075E-06   -0.63325E-06  5712   0.122E-02    0.211E-03
RMM:   2    -0.619694952548E+03   -0.13748E-05   -0.57737E-07  3927   0.341E-03
  71 F= -.61969495E+03 E0= -.61961953E+03  d E =-.150095E-03
       N       E                     dE             d eps       ncg     rms          rms(c)
DAV:   1    -0.619694951185E+03   -0.12253E-07   -0.61403E-06  5712   0.956E-03    0.278E-03
RMM:   2    -0.619694953410E+03   -0.22248E-05   -0.83334E-07  3774   0.380E-03
  72 F= -.61969495E+03 E0= -.61961953E+03  d E =-.150957E-03
       N       E                     dE             d eps       ncg     rms          rms(c)
DAV:   1    -0.619694166722E+03    0.78446E-03   -0.44884E-02 11664   0.128E+00    0.110E-01
RMM:   2    -0.619695927252E+03   -0.17605E-02   -0.12151E-02 14521   0.309E-01    0.350E-01
RMM:   3    -0.619695254664E+03    0.67259E-03   -0.12464E-03 11444   0.138E-01    0.188E-01
RMM:   4    -0.619695150404E+03    0.10426E-03   -0.42661E-04 12056   0.664E-02    0.132E-01
RMM:   5    -0.619695089445E+03    0.60959E-04   -0.13894E-04 10753   0.405E-02    0.728E-02
RMM:   6    -0.619695074565E+03    0.14880E-04   -0.67650E-05  9463   0.274E-02    0.709E-02
RMM:   7    -0.619695053682E+03    0.20883E-04   -0.32549E-05  7069   0.211E-02    0.365E-02
RMM:   8    -0.619695058226E+03   -0.45447E-05   -0.40136E-05  7551   0.232E-02
  73 F= -.61969506E+03 E0= -.61961964E+03  d E =-.104816E-03
       N       E                     dE             d eps       ncg     rms          rms(c)
DAV:   1    -0.619694479385E+03    0.57430E-03   -0.30467E-02 11664   0.106E+00    0.943E-02
RMM:   2    -0.619695928252E+03   -0.14489E-02   -0.81344E-03 14330   0.256E-01    0.366E-01
RMM:   3    -0.619695167087E+03    0.76117E-03   -0.94334E-04 10894   0.128E-01    0.135E-01
RMM:   4    -0.619695115109E+03    0.51978E-04   -0.33958E-04 11980   0.580E-02    0.106E-01
RMM:   5    -0.619695084919E+03    0.30190E-04   -0.10418E-04  9915   0.346E-02    0.688E-02
RMM:   6    -0.619695068158E+03    0.16761E-04   -0.48597E-05  8500   0.249E-02    0.514E-02
RMM:   7    -0.619695057264E+03    0.10894E-04   -0.28950E-05  7125   0.200E-02    0.325E-02
RMM:   8    -0.619695062892E+03   -0.56282E-05   -0.29599E-05  6885   0.208E-02
  74 F= -.61969506E+03 E0= -.61961970E+03  d E =-.109483E-03
       N       E                     dE             d eps       ncg     rms          rms(c)
DAV:   1    -0.619694363106E+03    0.69416E-03   -0.37293E-02 10776   0.111E+00    0.552E-02
RMM:   2    -0.619695257599E+03   -0.89449E-03   -0.78271E-03 14859   0.229E-01    0.171E-01
RMM:   3    -0.619695137818E+03    0.11978E-03   -0.65288E-04 10550   0.115E-01    0.839E-02
RMM:   4    -0.619695147374E+03   -0.95558E-05   -0.25256E-04 11906   0.474E-02    0.794E-02
RMM:   5    -0.619695127496E+03    0.19877E-04   -0.72066E-05  9520   0.293E-02    0.482E-02
RMM:   6    -0.619695117365E+03    0.10131E-04   -0.32768E-05  7758   0.197E-02    0.299E-02
RMM:   7    -0.619695115431E+03    0.19343E-05   -0.18236E-05  6256   0.180E-02
  75 F= -.61969512E+03 E0= -.61961974E+03  d E =-.525382E-04
       N       E                     dE             d eps       ncg     rms          rms(c)
DAV:   1    -0.619694736557E+03    0.38081E-03   -0.18853E-02 10656   0.794E-01    0.411E-02
RMM:   2    -0.619695255602E+03   -0.51904E-03   -0.40548E-03 14607   0.163E-01    0.165E-01
RMM:   3    -0.619695128143E+03    0.12746E-03   -0.35569E-04  9724   0.866E-02    0.500E-02
RMM:   4    -0.619695141205E+03   -0.13062E-04   -0.14122E-04 11226   0.338E-02    0.590E-02
RMM:   5    -0.619695129933E+03    0.11272E-04   -0.34136E-05  6827   0.233E-02    0.390E-02
RMM:   6    -0.619695123204E+03    0.67289E-05   -0.19369E-05  6412   0.192E-02
  76 F= -.61969512E+03 E0= -.61961977E+03  d E =-.603115E-04
       N       E                     dE             d eps       ncg     rms          rms(c)
DAV:   1    -0.619694857336E+03    0.27260E-03   -0.41233E-02 12864   0.115E+00    0.172E-01
RMM:   2    -0.619697449594E+03   -0.25923E-02   -0.10870E-02 12890   0.354E-01    0.552E-01
RMM:   3    -0.619695728951E+03    0.17206E-02   -0.20844E-03 11951   0.173E-01    0.308E-01
RMM:   4    -0.619695375205E+03    0.35375E-03   -0.64632E-04 12336   0.820E-02    0.197E-01
RMM:   5    -0.619695223894E+03    0.15131E-03   -0.22300E-04 10675   0.521E-02    0.934E-02
RMM:   6    -0.619695195033E+03    0.28860E-04   -0.14026E-04 10939   0.359E-02    0.932E-02
RMM:   7    -0.619695157735E+03    0.37299E-04   -0.70220E-05  8193   0.313E-02    0.589E-02
RMM:   8    -0.619695161448E+03   -0.37132E-05   -0.82169E-05  8869   0.279E-02
  77 F= -.61969516E+03 E0= -.61961983E+03  d E =-.382441E-04
