HECN                                    
           1
     8.932500    0.000000    0.000000
     0.005753    9.055598    0.000000
     0.032102   -0.015743    8.937128
   Zr   Nb   Ti   N    C    Cr   V 
   7   6   7  13  19   6   6
Direct configuration=     1
   0.99688001  0.99204997  0.99924002
   0.25398003  0.99714995  0.24912000
   0.24803003  0.50165000  0.24955001
   0.50501006  0.49745998  0.99834003
   0.50479003  0.24631001  0.74710002
   0.99427992  0.50449999  0.49779000
   0.49950005  0.75481999  0.74817004
   0.99437004  0.23617001  0.26379999
   0.75718000  0.74102998  0.01100000
   0.00201000  0.25541000  0.73894001
   0.75307001  0.26163001  0.50533002
   0.99514004  0.74492004  0.74511997
   0.25679999  0.49462002  0.74545002
   0.24788999  0.24839000  0.99657997
   0.50833000  0.25676999  0.25376001
   0.74879004  0.98787999  0.26967001
   0.75719000  0.25603001  0.99591997
   0.24762001  0.74973999  0.99974006
   0.25272001  0.24823001  0.50015003
   0.24457999  0.75048999  0.49983999
   0.24982001  0.24942998  0.24825000
   0.26146999  0.99984002  0.99295996
   0.00281000  0.25024000  0.00130000
   0.75313998  0.24617000  0.25492002
   0.74767001  0.99748000  0.01202000
   0.50714994  0.99977000  0.24673000
   0.99051999  0.48088002  0.24100998
   0.50519005  0.76130999  0.00855000
   0.98896989  0.00202000  0.73708999
   0.75744996  0.24437997  0.74896999
   0.73632001  0.00417000  0.51063000
   0.50563996  0.23264999  0.49544997
   0.50008998  0.00061000  0.73471998
   0.99720000  0.99771992  0.25899999
   0.50427997  0.24673000  0.00262000
   0.25133999  0.74958002  0.24910999
   0.24328000  0.50072997  0.99510994
   0.99837005  0.74313996  0.00460000
   0.75633000  0.73891003  0.25767000
   0.75839004  0.50315998  0.00288000
   0.50700002  0.50333002  0.25878999
   0.24900999  0.25315000  0.74854000
   0.24446000  0.99823996  0.50287998
   0.99804009  0.24229999  0.50128003
   0.24177002  0.75340997  0.75018002
   0.25841001  0.50062002  0.50129001
   0.99000004  0.76215003  0.49746000
   0.99203996  0.50055999  0.75138002
   0.75036005  0.74888000  0.74756004
   0.74036002  0.50197000  0.50067003
   0.50575006  0.74958002  0.49720000
   0.50501003  0.50217998  0.73912003
   0.51588997  0.01358000  0.98075008
   0.99841994  0.50976998  0.98613004
   0.50379003  0.73926997  0.25905001
   0.23780002  0.01082000  0.74607998
   0.47957999  0.98308000  0.49717999
   0.74279003  0.97869994  0.76450995
   0.99864998  0.77573999  0.26102000
   0.73551001  0.51468004  0.26666001
   0.02362000  0.99783001  0.49557002
   0.50539000  0.52833005  0.49917999
   0.73876003  0.52828003  0.73814999
   0.75400003  0.72937999  0.49116997
HECN                                    
           1
     8.363025    0.012304   -0.010574
     0.017860    8.486804    0.003464
     0.019454   -0.011285    8.358714
   Zr   Nb   Ti   N    C    Cr   V 
   7   6   7  13  19   6   6
Direct configuration=     2
   0.99621873  0.99562018  0.99563109
   0.26299510  0.99834328  0.24682588
   0.24632394  0.50057099  0.24804270
   0.50417152  0.49896518  0.00117098
   0.50555517  0.24025792  0.74484310
   0.99622446  0.50414086  0.49598837
   0.49716888  0.76254624  0.75036644
   0.99288800  0.23724364  0.26110042
   0.75514257  0.74218927  0.01242174
   0.00213198  0.25228889  0.74245654
   0.74892790  0.25670591  0.50360285
   0.99727623  0.74754637  0.74633871
   0.25418617  0.49607958  0.74656576
   0.24806251  0.24853282  0.99435293
   0.51064813  0.25435000  0.25426761
   0.74295925  0.98841177  0.27236467
   0.75615167  0.25606019  0.99569487
   0.24650966  0.74876728  0.99970886
   0.25362097  0.24667179  0.50176827
   0.24623021  0.75214699  0.49956052
   0.25130644  0.24912304  0.24855786
   0.26003277  0.00033454  0.99148624
   0.00246468  0.25004872  0.00043474
   0.74997179  0.24573964  0.25357199
   0.74389587  0.99921070  0.00780152
   0.51029670  0.99952640  0.24976073
   0.99068947  0.48270006  0.24203987
   0.50351240  0.76064518  0.00769271
   0.99028238  0.00199482  0.73799771
   0.75645488  0.24496915  0.75206792
   0.73678362  0.00297414  0.50540300
   0.50277813  0.23360814  0.49220986
   0.50255175  0.00017613  0.73792463
   0.99435950  0.99565079  0.25940702
   0.50533096  0.24269228  0.00483940
   0.25056142  0.74936382  0.24925873
   0.24157515  0.50142485  0.99488495
   0.00220405  0.73989431  0.00479960
   0.75477944  0.74135655  0.25900056
   0.76173088  0.50024516  0.00239542
   0.50864471  0.50314249  0.25980329
   0.24809226  0.24956171  0.74842039
   0.24850483  0.99779933  0.50700375
   0.00205033  0.24240751  0.50124033
   0.24153468  0.75393506  0.75009123
   0.25910882  0.50145194  0.50117989
   0.99330592  0.76200393  0.49619215
   0.99200714  0.50113556  0.75546823
   0.75042179  0.75165208  0.74762524
   0.73986793  0.50423846  0.50059978
   0.50323261  0.75222683  0.49136340
   0.50531676  0.50294319  0.73926953
   0.51936927  0.01568747  0.98111512
   0.99857798  0.51080326  0.98331795
   0.50401652  0.73918609  0.26000154
   0.23808410  0.01279473  0.74494551
   0.47800030  0.98202233  0.49837720
   0.74077361  0.97517111  0.76548332
   0.99940927  0.77460214  0.26116943
   0.73587941  0.51355263  0.26565364
   0.02161403  0.99828935  0.50009257
   0.50423328  0.52717527  0.49788069
   0.74116078  0.52537030  0.73825278
   0.75183867  0.73372938  0.49084641
HECN                                    
           1
     8.692632    0.005183   -0.004454
     0.010853    8.816017    0.001459
     0.026775   -0.013866    8.693495
   Zr   Nb   Ti   N    C    Cr   V 
   7   6   7  13  19   6   6
Direct configuration=     3
   0.99663365  0.99341378  0.99786589
   0.25742484  0.99761380  0.24823883
   0.24737884  0.50123546  0.24897655
   0.50468908  0.49803556 -0.00057989
   0.50507836  0.24399571  0.74623762
   0.99502342  0.50436394  0.49710168
   0.49861541  0.75777310  0.74901102
   0.99380730  0.23657858  0.26277247
   0.75640207  0.74147184  0.01154380
   0.00205095  0.25421743  0.74027946
   0.75148539  0.25974281  0.50467367
   0.99595710  0.74592661  0.74558350
   0.25580252  0.49517612  0.74587771
   0.24795773  0.24844421  0.99573102
   0.50921243  0.25584675  0.25395105
   0.74656224  0.98807881  0.27070179
   0.75679377  0.25604056  0.99583499
   0.24719521  0.74936701  0.99972878
   0.25306129  0.24763533  0.50076573
   0.24521178  0.75112506  0.49973260
   0.25038700  0.24931401  0.24836610
   0.26092287  0.00002748  0.99239950
   0.00267866  0.25016633  0.00097042
   0.75193104  0.24600225  0.25440857
   0.74623395  0.99813740  0.01041550
   0.50834877  0.99968042  0.24788266
   0.99058557  0.48157645  0.24140287
   0.50454959  0.76105404  0.00822438
   0.98947026  0.00201178  0.73743494
   0.75706816  0.24460517  0.75015171
   0.73650000  0.00371178  0.50863703
   0.50455074  0.23301302  0.49421747
   0.50102697  0.00044709  0.73593941
   0.99611328  0.99692621  0.25915682
   0.50467578  0.24518741  0.00346408
   0.25104242  0.74949668  0.24916724
   0.24262991  0.50099412  0.99502570
  -0.00016929  0.74190225  0.00467224
   0.75573921  0.73984457  0.25817899
   0.75966326  0.50204817  0.00269194
   0.50762699  0.50326003  0.25917488
   0.24865639  0.25177693  0.74849421
   0.24600067  0.99807612  0.50444850
  -0.00042869  0.24234469  0.50126179
   0.24168072  0.75361054  0.75014649
   0.25867766  0.50093876  0.50124770
   0.99126307  0.76209680  0.49697413
   0.99202476  0.50078110  0.75293844
   0.75038613  0.74994016  0.74758555
   0.74017428  0.50283704  0.50064422
   0.50479591  0.75058848  0.49497800
   0.50512772  0.50247216  0.73917697
   0.51722000  0.01438914  0.98088704
   0.99848343  0.51016456  0.98505833
   0.50387568  0.73923833  0.25941249
   0.23791119  0.01157514  0.74564786
   0.47897496  0.98267442  0.49763728
   0.74201616  0.97734889  0.76488163
   0.99893871  0.77530558  0.26107607
   0.73565080  0.51424898  0.26627585
   0.02285101  0.99800501  0.49729550
   0.50494832  0.52788708  0.49868536
   0.73967387  0.52716947  0.73818654
   0.75317909  0.73104125  0.49104945
HECN                                    
           1
     8.684942    0.005349   -0.004597
     0.011016    8.808336    0.001506
     0.026604   -0.013805    8.685684
   Zr   Nb   Ti   N    C    Cr   V 
   7   6   7  13  19   6   6
Direct configuration=     4
   0.99662441  0.99346331  0.99781578
   0.25754991  0.99763028  0.24820705
   0.24735516  0.50122052  0.24895561
   0.50467745  0.49805644 -0.00054060
   0.50508901  0.24391176  0.74620631
   0.99505039  0.50435895  0.49707669
   0.49858301  0.75788028  0.74904148
   0.99378671  0.23659349  0.26273498
   0.75637380  0.74148794  0.01156352
   0.00205269  0.25417413  0.74032829
   0.75142794  0.25967455  0.50464968
   0.99598672  0.74596302  0.74560043
   0.25576624  0.49519639  0.74589318
   0.24796011  0.24844619  0.99570011
   0.50924462  0.25581316  0.25395811
   0.74648135  0.98808623  0.27073916
   0.75677936  0.25604099  0.99583186
   0.24717981  0.74935353  0.99972834
   0.25307382  0.24761371  0.50078820
   0.24523467  0.75114803  0.49972873
   0.25040763  0.24930974  0.24837038
   0.26090291  0.00003435  0.99237903
   0.00267386  0.25016368  0.00095841
   0.75188707  0.24599630  0.25438984
   0.74618154  0.99816145  0.01035691
   0.50839245  0.99967701  0.24792475
   0.99058791  0.48160169  0.24141716
   0.50452631  0.76104483  0.00821247
   0.98948848  0.00201141  0.73744755
   0.75705437  0.24461335  0.75019471
   0.73650641  0.00369520  0.50856447
   0.50451100  0.23302634  0.49417247
   0.50106115  0.00044105  0.73598392
   0.99607389  0.99689753  0.25916246
   0.50469041  0.24513139  0.00349491
   0.25103162  0.74949369  0.24916930
   0.24260625  0.50100378  0.99502256
  -0.00011606  0.74185720  0.00467505
   0.75571769  0.73987851  0.25819744
   0.75970964  0.50200771  0.00268524
   0.50764982  0.50325741  0.25918896
   0.24864369  0.25172716  0.74849255
   0.24605683  0.99806996  0.50450578
  -0.00037304  0.24234615  0.50126127
   0.24167745  0.75361783  0.75014526
   0.25868735  0.50095029  0.50124618
   0.99130893  0.76209475  0.49695655
   0.99202433  0.50078908  0.75299519
   0.75038696  0.74997861  0.74758645
   0.74016743  0.50286851  0.50064324
   0.50476091  0.75062523  0.49489695
   0.50513197  0.50248274  0.73917905
   0.51726827  0.01441834  0.98089212
   0.99848560  0.51017889  0.98501930
   0.50387883  0.73923717  0.25942570
   0.23791510  0.01160253  0.74563210
   0.47895306  0.98265976  0.49765389
   0.74198822  0.97729996  0.76489513
   0.99894926  0.77528979  0.26107815
   0.73565593  0.51423334  0.26626188
   0.02282320  0.99801139  0.49735827
   0.50493227  0.52787108  0.49866732
   0.73970721  0.52712909  0.73818799
   0.75314906  0.73110160  0.49104493
HECN                                    
           1
     8.688341    0.017502   -0.008561
     0.023355    8.793069    0.001916
     0.022630   -0.013335    8.684752
   Zr   Nb   Ti   N    C    Cr   V 
   7   6   7  13  19   6   6
Direct configuration=     5
   0.99679298  0.99642915  0.99494897
   0.26431743  0.99921779  0.24587803
   0.24587179  0.49960898  0.24771676
   0.50381718  0.49940257  0.00138906
   0.50541910  0.24048211  0.74501718
   0.99700252  0.50385535  0.49595274
   0.49613337  0.76258743  0.75127708
   0.99363077  0.23730584  0.25833898
   0.75401758  0.74392692  0.01192082
   0.00182000  0.25059594  0.74517332
   0.74808904  0.25502549  0.50299205
   0.99773178  0.74962330  0.74712565
   0.25317319  0.49690481  0.74718930
   0.24881559  0.24812164  0.99436031
   0.51036039  0.25358369  0.25391623
   0.74155428  0.98882989  0.27223526
   0.75529663  0.25533279  0.99624401
   0.24683849  0.74887121  0.99987153
   0.25446771  0.24621692  0.50145462
   0.24708911  0.75250501  0.49921377
   0.25233300  0.24902652  0.24840748
   0.26089145  0.00047516  0.98992740
   0.00255091  0.25153389  0.00042416
   0.74788155  0.24592324  0.25157230
   0.74196314  0.00058560  0.00662520
   0.51215093  0.99912432  0.25000607
   0.98934487  0.48529605  0.24046791
   0.50187507  0.76170507  0.00869005
   0.99022914  0.00196376  0.73734233
   0.75607792  0.24520575  0.75394389
   0.73763089  0.00147259  0.50505664
   0.50076036  0.23419597  0.49072008
   0.50302622  0.00054131  0.73893125
   0.99369206  0.99513690  0.25956615
   0.50517676  0.24135346  0.00606587
   0.25041293  0.74936172  0.24922057
   0.24043630  0.50145753  0.99492450
   0.00401138  0.73875861  0.00598924
   0.75407236  0.74297462  0.25950347
   0.76307081  0.49824017  0.00253944
   0.50814384  0.50251563  0.26032954
   0.24863938  0.24779341  0.74844862
   0.25046165  0.99783793  0.50859140
   0.00379397  0.24187950  0.50126803
   0.24193779  0.75505951  0.75021571
   0.26003990  0.50160975  0.50066834
   0.99441578  0.76252058  0.49555639
   0.99136436  0.50105583  0.75662061
   0.75009474  0.75275348  0.74697719
   0.73942384  0.50472205  0.50089950
   0.50234894  0.75423507  0.49017765
   0.50583795  0.50293585  0.73894275
   0.51956022  0.01510150  0.98164789
   0.99933073  0.50977323  0.98366090
   0.50386127  0.74032937  0.25878577
   0.23821997  0.01279743  0.74545950
   0.47859459  0.98259389  0.49807435
   0.74039352  0.97605752  0.76609370
   0.00038164  0.77162504  0.25986647
   0.73805048  0.51090159  0.26396198
   0.01904163  0.99916658  0.50178549
   0.50295205  0.52418495  0.49782310
   0.74262908  0.52226531  0.73980900
   0.75065606  0.73752567  0.49219658
HECN                                    
           1
     8.688871    0.019396   -0.009179
     0.025278    8.790689    0.001980
     0.022010   -0.013261    8.684607
   Zr   Nb   Ti   N    C    Cr   V 
   7   6   7  13  19   6   6
Direct configuration=     6
   0.99681838  0.99689218  0.99450211
   0.26537124  0.99946420  0.24551547
   0.24564096  0.49935771  0.24752357
   0.50368300  0.49961291  0.00168976
   0.50547121  0.23994660  0.74483188
   0.99730669  0.50377631  0.49577769
   0.49575085  0.76332284  0.75162533
   0.99360600  0.23741713  0.25765376
   0.75364999  0.74430821  0.01197633
   0.00178489  0.25003730  0.74592853
   0.74756978  0.25430039  0.50273347
   0.99800295  0.75019437  0.74736348
   0.25276892  0.49717209  0.74739113
   0.24894885  0.24807080  0.99415154
   0.51053471  0.25323537  0.25390980
   0.74078661  0.98894705  0.27246810
   0.75506581  0.25522253  0.99630815
   0.24678544  0.74879598  0.99989383
   0.25468523  0.24599854  0.50155861
   0.24737768  0.75271647  0.49913363
   0.25263302  0.24898189  0.24841340
   0.26088939  0.00054401  0.98954526
   0.00253141  0.25174785  0.00034087
   0.74725733  0.24591272  0.25113284
   0.74130513  0.00096501  0.00604321
   0.51273674  0.99903721  0.25033076
   0.98915032  0.48587311  0.24031983
   0.50146191  0.76180871  0.00876430
   0.99034454  0.00195616  0.73732599
   0.75592593  0.24529842  0.75452821
   0.73780632  0.00112538  0.50450997
   0.50017553  0.23437941  0.49018168
   0.50333256  0.00055652  0.73939079
   0.99332141  0.99486253  0.25962891
   0.50525355  0.24076351  0.00646667
   0.25031658  0.74934125  0.24922852
   0.24009813  0.50152884  0.99490906
   0.00465519  0.73827394  0.00619440
   0.75381544  0.74345834  0.25970690
   0.76359529  0.49765124  0.00251698
   0.50822105  0.50239970  0.26050736
   0.24863958  0.24717925  0.74844180
   0.25114824  0.99780072  0.50922854
   0.00444326  0.24180575  0.50126938
   0.24197803  0.75528454  0.75022670
   0.26025044  0.50171242  0.50057837
   0.99489961  0.76258641  0.49533836
   0.99126174  0.50109759  0.75718566
   0.75004855  0.75318677  0.74688218
   0.73930760  0.50501159  0.50093938
   0.50197204  0.75479921  0.48944185
   0.50594782  0.50300644  0.73890596
   0.51991719  0.01520766  0.98176585
   0.99946239  0.50970972  0.98344923
   0.50385825  0.74049990  0.25868601
   0.23826719  0.01298392  0.74543261
   0.47853878  0.98258368  0.49813986
   0.74014544  0.97586387  0.76628042
   0.00060552  0.77105258  0.25967773
   0.73842412  0.51038092  0.26360368
   0.01845255  0.99934771  0.50247529
   0.50264430  0.52360989  0.49769140
   0.74308548  0.52150531  0.74006191
   0.75026632  0.73852916  0.49237587
HECN                                    
           1
     8.723835    0.024431   -0.005641
     0.030462    8.794445   -0.001857
     0.025673   -0.017063    8.720239
   Zr   Nb   Ti   N    C    Cr   V 
   7   6   7  13  19   6   6
Direct configuration=     7
   0.99626608  0.99552142  0.99533694
   0.26519454  0.99905539  0.24535357
   0.24586413  0.49855428  0.24768221
   0.50422289  0.49904109  0.00131693
   0.50518380  0.24165203  0.74537170
   0.99646042  0.50310829  0.49830041
   0.49602748  0.76053373  0.75100013
   0.99234019  0.23587500  0.25749969
   0.75449292  0.74416147  0.01153402
   0.00144038  0.24899573  0.74527553
   0.74920620  0.25300731  0.50208327
   0.99741128  0.75150075  0.74716256
   0.25268672  0.49650208  0.74761617
   0.25063599  0.24755285  0.99346671
   0.51066660  0.25335110  0.25336974
   0.74009726  0.98877744  0.27204337
   0.75310125  0.25460609  0.99722407
   0.24684363  0.74859086  0.00051454
   0.25514104  0.24517356  0.50195054
   0.24822107  0.75326967  0.49835220
   0.25283753  0.24830728  0.24799938
   0.26052162  0.00104401  0.98892125
   0.00294983  0.25286105  0.00066041
   0.74662676  0.24584438  0.24967503
   0.74115189  0.00202077  0.00337659
   0.51372895  0.99888005  0.25126936
   0.98825540  0.48840481  0.24003874
   0.50017376  0.76243450  0.00922774
   0.99034572  0.00208058  0.73721839
   0.75561929  0.24596567  0.75518758
   0.73963101  0.00017168  0.50329728
   0.49852462  0.23581501  0.48985025
   0.50534209  0.00154221  0.74176747
   0.99394446  0.99408916  0.25915568
   0.50452267  0.24011965  0.00623480
   0.24996487  0.75000654  0.24911186
   0.24001784  0.50122030  0.99457057
   0.00390150  0.73851249  0.00702289
   0.75253501  0.74440180  0.25987977
   0.76358455  0.49765716  0.00287536
   0.50822591  0.50174306  0.26059974
   0.24892118  0.24668806  0.74828143
   0.25185516  0.99814855  0.50991301
   0.00454148  0.24188360  0.50078551
   0.24180787  0.75609269  0.75037162
   0.26048010  0.50196153  0.50043729
   0.99618685  0.76227781  0.49539822
   0.99120686  0.50109648  0.75717785
   0.74986597  0.75275539  0.74684945
   0.73979226  0.50578321  0.50084432
   0.50072163  0.75545273  0.48957577
   0.50600585  0.50318501  0.73936120
   0.52083646  0.01442728  0.98114913
   0.00010672  0.51006177  0.98312174
   0.50404493  0.73972920  0.25745685
   0.23663519  0.01295165  0.74570043
   0.47921538  0.98287336  0.49804014
   0.73866105  0.97586754  0.76803733
   0.00152238  0.77133420  0.25856741
   0.73955200  0.50964757  0.26348304
   0.01927453  0.00046409  0.50333410
   0.50217293  0.52344922  0.49759374
   0.74382511  0.52130930  0.74113359
   0.74885938  0.74060719  0.49299255
HECN                                    
           1
     8.726200    0.024771   -0.005402
     0.030813    8.794699   -0.002116
     0.025921   -0.017320    8.722650
   Zr   Nb   Ti   N    C    Cr   V 
   7   6   7  13  19   6   6
Direct configuration=     8
   0.99622890  0.99542877  0.99539316
   0.26518266  0.99902775  0.24534266
   0.24587920  0.49849995  0.24769287
   0.50425931  0.49900239  0.00129178
   0.50516435  0.24176738  0.74540813
   0.99640335  0.50306322  0.49847038
   0.49604625  0.76034509  0.75095792
   0.99225496  0.23577076  0.25748929
   0.75454974  0.74415151  0.01150419
   0.00141723  0.24892529  0.74523151
   0.74931653  0.25291979  0.50203938
   0.99737136  0.75158911  0.74714908
   0.25268120  0.49645678  0.74763131
   0.25074971  0.24751774  0.99342051
   0.51067549  0.25335891  0.25333336
   0.74005083  0.98876599  0.27201477
   0.75296887  0.25456451  0.99728582
   0.24684754  0.74857700  0.00055635
   0.25517177  0.24511776  0.50197691
   0.24827790  0.75330703  0.49829954
   0.25285135  0.24826164  0.24797146
   0.26049684  0.00107782  0.98887924
   0.00297797  0.25293632  0.00068196
   0.74658431  0.24583974  0.24957683
   0.74114159  0.00209209  0.00319696
   0.51379579  0.99886941  0.25133256
   0.98819500  0.48857604  0.24001990
   0.50008692  0.76247688  0.00925902
   0.99034580  0.00208899  0.73721115
   0.75559858  0.24601082  0.75523203
   0.73975403  0.00010708  0.50321550
   0.49841333  0.23591214  0.48982800
   0.50547739  0.00160886  0.74192758
   0.99398649  0.99403683  0.25912376
   0.50447346  0.24007613  0.00621918
   0.24994115  0.75005154  0.24910403
   0.24001245  0.50119943  0.99454776
   0.00385068  0.73852868  0.00707874
   0.75244869  0.74446565  0.25989148
   0.76358382  0.49765758  0.00289950
   0.50822626  0.50169866  0.26060594
   0.24894018  0.24665483  0.74827060
   0.25190276  0.99817206  0.50995912
   0.00454811  0.24188884  0.50075291
   0.24179637  0.75614735  0.75038141
   0.26049556  0.50197836  0.50042779
   0.99627360  0.76225689  0.49540221
   0.99120316  0.50109641  0.75717732
   0.74985369  0.75272622  0.74684724
   0.73982489  0.50583537  0.50083793
   0.50063734  0.75549698  0.48958485
   0.50600974  0.50319710  0.73939187
   0.52089845  0.01437445  0.98110753
   0.00015013  0.51008554  0.98309967
   0.50405757  0.73967704  0.25737400
   0.23652522  0.01294953  0.74571852
   0.47926096  0.98289292  0.49803341
   0.73856098  0.97586790  0.76815574
   0.00158418  0.77135317  0.25849258
   0.73962803  0.50959794  0.26347486
   0.01932985  0.00053958  0.50339198
   0.50214118  0.52343837  0.49758716
   0.74387493  0.52129605  0.74120577
   0.74876447  0.74074779  0.49303420
HECN                                    
           1
     8.705311    0.025720   -0.003120
     0.031795    8.758719   -0.003269
     0.028125   -0.018404    8.697579
   Zr   Nb   Ti   N    C    Cr   V 
   7   6   7  13  19   6   6
Direct configuration=     9
   0.99578293  0.99482478  0.99623991
   0.26510779  0.99903496  0.24540246
   0.24539701  0.49763259  0.24799298
   0.50454043  0.49878906  0.00135321
   0.50562291  0.24372256  0.74497976
   0.99592844  0.50289687  0.50025742
   0.49633544  0.75887685  0.75040369
   0.99065177  0.23479516  0.25747388
   0.75509736  0.74359142  0.01111944
   0.00102167  0.24776263  0.74455762
   0.75060486  0.25142743  0.50141723
   0.99718602  0.75263074  0.74666462
   0.25237416  0.49581867  0.74774344
   0.25221172  0.24647956  0.99279543
   0.51084785  0.25389587  0.25321135
   0.73992283  0.98844770  0.27138256
   0.75124539  0.25384117  0.99835788
   0.24674026  0.74834454  0.00083606
   0.25552950  0.24441166  0.50222627
   0.24899004  0.75358975  0.49785140
   0.25263767  0.24743725  0.24741566
   0.25961821  0.00149660  0.98886814
   0.00341246  0.25373071  0.00103754
   0.74647161  0.24561718  0.24839063
   0.74178553  0.00283204  0.00033625
   0.51381881  0.99867680  0.25251364
   0.98747054  0.49117273  0.24051699
   0.49915347  0.76294192  0.00956037
   0.99034757  0.00230850  0.73729445
   0.75546293  0.24683491  0.75528091
   0.74204060 -0.00050107  0.50182556
   0.49747736  0.23782154  0.49006637
   0.50841956  0.00144081  0.74490028
   0.99507655  0.99362123  0.25859094
   0.50357424  0.23966336  0.00554232
   0.24949544  0.75010369  0.24890161
   0.24051452  0.50072997  0.99448010
   0.00283210  0.73885594  0.00759414
   0.75110192  0.74499956  0.25986464
   0.76335091  0.49821207  0.00323990
   0.50839960  0.50106810  0.26031614
   0.24888040  0.24645819  0.74808952
   0.25281672  0.99862520  0.51033366
   0.00434189  0.24186994  0.50022523
   0.24143457  0.75692141  0.75050414
   0.26029693  0.50216084  0.50048648
   0.99722366  0.76208934  0.49545359
   0.99139932  0.50111636  0.75727604
   0.74969368  0.75222996  0.74719090
   0.74008549  0.50635815  0.50086847
   0.49953006  0.75563898  0.48989602
   0.50592678  0.50308481  0.73982997
   0.52183931  0.01342900  0.97933719
   0.00048154  0.51087372  0.98261466
   0.50413846  0.73815883  0.25615690
   0.23374631  0.01277949  0.74588569
   0.48008543  0.98334052  0.49816218
   0.73633302  0.97531081  0.77048451
   0.00249780  0.77114042  0.25807595
   0.74076564  0.50944842  0.26395613
   0.02079203  0.00142319  0.50383632
   0.50208717  0.52367759  0.49729062
   0.74462207  0.52138821  0.74210781
   0.74738211  0.74259861  0.49313498
HECN                                    
           1
     8.709138    0.025546   -0.003538
     0.031615    8.765312   -0.003058
     0.027721   -0.018205    8.702173
   Zr   Nb   Ti   N    C    Cr   V 
   7   6   7  13  19   6   6
Direct configuration=    10
   0.99586487  0.99493588  0.99608431
   0.26512155  0.99903363  0.24539147
   0.24548557  0.49779215  0.24793783
   0.50448879  0.49882831  0.00134194
   0.50553871  0.24336286  0.74505845
   0.99601575  0.50292742  0.49992901
   0.49628227  0.75914700  0.75050558
   0.99094620  0.23497462  0.25747666
   0.75499674  0.74369449  0.01119018
   0.00109426  0.24797655  0.74468146
   0.75036817  0.25170204  0.50153165
   0.99722006  0.75243911  0.74675361
   0.25243054  0.49593607  0.74772284
   0.25194313  0.24667061  0.99291039
   0.51081620  0.25379708  0.25323376
   0.73994630  0.98850627  0.27149874
   0.75156197  0.25397419  0.99816081
   0.24675997  0.74838730  0.00078466
   0.25546380  0.24454158  0.50218048
   0.24885922  0.75353776  0.49793378
   0.25267687  0.24758893  0.24751780
   0.25977959  0.00141953  0.98887012
   0.00333269  0.25358456  0.00097220
   0.74649225  0.24565815  0.24860860
   0.74166714  0.00269599  0.00086194
   0.51381463  0.99871221  0.25229661
   0.98760369  0.49069495  0.24042555
   0.49932494  0.76285633  0.00950494
   0.99034725  0.00226811  0.73727913
   0.75548787  0.24668329  0.75527190
   0.74162054 -0.00038910  0.50208110
   0.49764933  0.23747022  0.49002247
   0.50787931  0.00147172  0.74435416
   0.99487630  0.99369772  0.25868891
   0.50373936  0.23973930  0.00566667
   0.24957730  0.75009409  0.24893879
   0.24042229  0.50081636  0.99449257
   0.00301922  0.73879569  0.00749937
   0.75134930  0.74490130  0.25986950
   0.76339372  0.49811004  0.00317732
   0.50836773  0.50118412  0.26036941
   0.24889137  0.24649437  0.74812279
   0.25264888  0.99854184  0.51026487
   0.00437974  0.24187343  0.50032219
   0.24150105  0.75677898  0.75048155
   0.26033342  0.50212726  0.50047568
   0.99704916  0.76212018  0.49544420
   0.99136330  0.50111269  0.75725791
   0.74972308  0.75232125  0.74712775
   0.74003764  0.50626197  0.50086286
   0.49973345  0.75561282  0.48983878
   0.50594204  0.50310545  0.73974947
   0.52166639  0.01360301  0.97966257
   0.00042067  0.51072873  0.98270378
   0.50412351  0.73843818  0.25638060
   0.23425672  0.01281071  0.74585484
   0.47993402  0.98325818  0.49813855
   0.73674233  0.97541320  0.77005649
   0.00232997  0.77117959  0.25815256
   0.74055671  0.50947594  0.26386775
   0.02052352  0.00126064  0.50375471
   0.50209708  0.52363359  0.49734511
   0.74448488  0.52137125  0.74194208
   0.74763605  0.74225806  0.49311635
HECN                                    
           1
     8.713257    0.023124   -0.004314
     0.029168    8.774238   -0.000566
     0.026956   -0.015755    8.700879
   Zr   Nb   Ti   N    C    Cr   V 
   7   6   7  13  19   6   6
Direct configuration=    11
   0.99611166  0.99579901  0.99624036
   0.26554603  0.99938054  0.24551668
   0.24445871  0.49723917  0.24796597
   0.50412212  0.49933488  0.00185244
   0.50636816  0.24396438  0.74375563
   0.99629816  0.50342041  0.49971344
   0.49595822  0.75968458  0.75070731
   0.99032157  0.23543040  0.25690686
   0.75449813  0.74350255  0.01109242
   0.00082226  0.24731948  0.74503449
   0.75018015  0.25052231  0.50119151
   0.99769187  0.75285761  0.74642581
   0.25187201  0.49595338  0.74780666
   0.25233457  0.24564574  0.99280468
   0.51079474  0.25436896  0.25365994
   0.74032317  0.98833106  0.27063944
   0.75118731  0.25361390  0.99880402
   0.24657982  0.74832157  0.00053085
   0.25552999  0.24453322  0.50204317
   0.24917080  0.75336497  0.49812304
   0.25232813  0.24728389  0.24720195
   0.25912447  0.00138978  0.98918437
   0.00340357  0.25384641  0.00114265
   0.74656759  0.24540548  0.24813359
   0.74251135  0.00280446 -0.00013479
   0.51326101  0.99853065  0.25318214
   0.98726095  0.49225524  0.24117034
   0.49906780  0.76308490  0.00971040
   0.99027959  0.00237518  0.73732914
   0.75564188  0.24725739  0.75488123
   0.74317058 -0.00044965  0.50150628
   0.49780778  0.23883506  0.49030523
   0.51011587  0.00084464  0.74606857
   0.99549903  0.99385164  0.25866607
   0.50332962  0.23948171  0.00522746
   0.24932098  0.74938541  0.24880828
   0.24088469  0.50051382  0.99477408
   0.00289281  0.73876972  0.00746531
   0.75073632  0.74483885  0.25978400
   0.76346520  0.49839666  0.00325918
   0.50844898  0.50089350  0.26010018
   0.24871887  0.24633308  0.74799377
   0.25366995  0.99873859  0.51049089
   0.00445254  0.24174759  0.50012464
   0.24128682  0.75726150  0.75050311
   0.25997066  0.50213313  0.50063681
   0.99715256  0.76241152  0.49527647
   0.99156924  0.50115563  0.75767347
   0.74970076  0.75230502  0.74754088
   0.73981612  0.50627302  0.50115896
   0.49946206  0.75545786  0.48965685
   0.50588076  0.50284965  0.73976883
   0.52180498  0.01301944  0.97780552
   0.00019688  0.51126357  0.98256069
   0.50377252  0.73703010  0.25566218
   0.23169213  0.01256734  0.74580483
   0.48078763  0.98391264  0.49861232
   0.73535791  0.97465043  0.77141464
   0.00282035  0.76988521  0.25861221
   0.74133480  0.50969604  0.26433793
   0.02105575  0.00133976  0.50356291
   0.50227576  0.52352100  0.49702625
   0.74501526  0.52098092  0.74234108
   0.74691842  0.74328386  0.49285451
HECN                                    
           1
     8.714995    0.022102   -0.004642
     0.028135    8.778005    0.000486
     0.026633   -0.014721    8.700333
   Zr   Nb   Ti   N    C    Cr   V 
   7   6   7  13  19   6   6
Direct configuration=    12
   0.99621587  0.99616289  0.99630613
   0.26572512  0.99952682  0.24556950
   0.24402552  0.49700593  0.24797787