  64  64   0   0
  0.2218804E+02  0.1124000E-08  0.1124000E-08  0.1124000E-08  0.5000000E-15
  1.000000000000000E-004
  CAR 
 HECN                                    
     15.21370467    -60.02901435  301      8.31343187      1.00000000
    -60.029  0.0000E+00  0.0000E+00
    -59.778  0.0000E+00  0.0000E+00
    -59.527  0.0000E+00  0.0000E+00
    -59.277  0.0000E+00  0.0000E+00
    -59.026  0.0000E+00  0.0000E+00
    -58.775  0.0000E+00  0.0000E+00
    -58.524  0.0000E+00  0.0000E+00
    -58.273  0.0000E+00  0.0000E+00
    -58.023  0.0000E+00  0.0000E+00
    -57.772  0.0000E+00  0.0000E+00
    -57.521  0.0000E+00  0.0000E+00
    -57.270  0.0000E+00  0.0000E+00
    -57.019  0.4216E-09  0.1057E-09
    -56.768  0.1880E-02  0.4714E-03
    -56.518  0.2671E+00  0.6746E-01
    -56.267  0.2085E+00  0.1197E+00
    -56.016  0.1020E-02  0.1200E+00
    -55.765  0.2105E-09  0.1200E+00
    -55.514  0.0000E+00  0.1200E+00
    -55.264  0.0000E+00  0.1200E+00
    -55.013  0.0000E+00  0.1200E+00
    -54.762  0.0000E+00  0.1200E+00
    -54.511  0.0000E+00  0.1200E+00
    -54.260  0.0000E+00  0.1200E+00
    -54.010  0.0000E+00  0.1200E+00
    -53.759  0.0000E+00  0.1200E+00
    -53.508  0.0000E+00  0.1200E+00
    -53.257  0.0000E+00  0.1200E+00
    -53.006  0.0000E+00  0.1200E+00
    -52.756  0.0000E+00  0.1200E+00
    -52.505  0.0000E+00  0.1200E+00
    -52.254  0.0000E+00  0.1200E+00
    -52.003  0.0000E+00  0.1200E+00
    -51.752  0.0000E+00  0.1200E+00
    -51.502  0.0000E+00  0.1200E+00
    -51.251  0.0000E+00  0.1200E+00
    -51.000  0.0000E+00  0.1200E+00
    -50.749  0.0000E+00  0.1200E+00
    -50.498  0.0000E+00  0.1200E+00
    -50.247  0.0000E+00  0.1200E+00
    -49.997  0.0000E+00  0.1200E+00
    -49.746  0.3373E-09  0.1200E+00
    -49.495  0.1188E-02  0.1203E+00
    -49.244  0.1286E+00  0.1525E+00
    -48.993  0.2179E+00  0.2072E+00
    -48.743  0.2096E+00  0.2598E+00
    -48.492  0.8955E-03  0.2600E+00
    -48.241  0.1932E-09  0.2600E+00
    -47.990  0.1264E-08  0.2600E+00
    -47.739  0.2533E-02  0.2606E+00
    -47.489  0.1490E+00  0.2980E+00
    -47.238  0.2101E+00  0.3507E+00
    -46.987  0.1161E+00  0.3798E+00
    -46.736  0.6571E-03  0.3800E+00
    -46.485  0.1037E-09  0.3800E+00
    -46.235  0.0000E+00  0.3800E+00
    -45.984  0.0000E+00  0.3800E+00
    -45.733  0.0000E+00  0.3800E+00
    -45.482  0.0000E+00  0.3800E+00
    -45.231  0.0000E+00  0.3800E+00
    -44.980  0.0000E+00  0.3800E+00
    -44.730  0.0000E+00  0.3800E+00
    -44.479  0.0000E+00  0.3800E+00
    -44.228  0.0000E+00  0.3800E+00
    -43.977  0.0000E+00  0.3800E+00
    -43.726  0.0000E+00  0.3800E+00
    -43.476  0.0000E+00  0.3800E+00
    -43.225  0.0000E+00  0.3800E+00
    -42.974  0.0000E+00  0.3800E+00
    -42.723  0.0000E+00  0.3800E+00
    -42.472  0.0000E+00  0.3800E+00
    -42.222  0.0000E+00  0.3800E+00
    -41.971  0.0000E+00  0.3800E+00
    -41.720  0.0000E+00  0.3800E+00
    -41.469  0.5993E-12  0.3800E+00
    -41.218  0.6290E-04  0.3800E+00
    -40.968  0.8601E-01  0.4016E+00
    -40.717  0.1256E+00  0.4331E+00
    -40.466  0.8324E-01  0.4540E+00
    -40.215  0.1419E+00  0.4896E+00
    -39.964  0.4231E-01  0.5002E+00
    -39.713  0.6978E-01  0.5177E+00
    -39.463  0.9227E-02  0.5200E+00
    -39.212  0.8367E-07  0.5200E+00
    -38.961  0.0000E+00  0.5200E+00
    -38.710  0.0000E+00  0.5200E+00
    -38.459  0.0000E+00  0.5200E+00
    -38.209  0.0000E+00  0.5200E+00
    -37.958  0.0000E+00  0.5200E+00
    -37.707  0.0000E+00  0.5200E+00
    -37.456  0.0000E+00  0.5200E+00
    -37.205  0.0000E+00  0.5200E+00
    -36.955  0.0000E+00  0.5200E+00
    -36.704  0.0000E+00  0.5200E+00
    -36.453  0.0000E+00  0.5200E+00
    -36.202  0.0000E+00  0.5200E+00
    -35.951  0.0000E+00  0.5200E+00
    -35.701  0.0000E+00  0.5200E+00
    -35.450  0.0000E+00  0.5200E+00
    -35.199  0.0000E+00  0.5200E+00
    -34.948  0.0000E+00  0.5200E+00
    -34.697  0.0000E+00  0.5200E+00
    -34.446  0.0000E+00  0.5200E+00
    -34.196  0.0000E+00  0.5200E+00
    -33.945  0.0000E+00  0.5200E+00
    -33.694  0.0000E+00  0.5200E+00
    -33.443  0.0000E+00  0.5200E+00
    -33.192  0.0000E+00  0.5200E+00
    -32.942  0.0000E+00  0.5200E+00
    -32.691  0.0000E+00  0.5200E+00
    -32.440  0.0000E+00  0.5200E+00
    -32.189  0.0000E+00  0.5200E+00
    -31.938  0.0000E+00  0.5200E+00
    -31.688  0.0000E+00  0.5200E+00
    -31.437  0.0000E+00  0.5200E+00
    -31.186  0.1328E-16  0.5200E+00
    -30.935  0.2168E-06  0.5200E+00
    -30.684  0.2905E-01  0.5273E+00
    -30.434  0.8593E+00  0.7428E+00
    -30.183  0.5426E+00  0.8789E+00
    -29.932  0.4371E-02  0.8800E+00
    -29.681  0.2857E-08  0.8800E+00
    -29.430  0.0000E+00  0.8800E+00
    -29.179  0.0000E+00  0.8800E+00
    -28.929  0.0000E+00  0.8800E+00
    -28.678  0.0000E+00  0.8800E+00
    -28.427  0.0000E+00  0.8800E+00
    -28.176  0.0000E+00  0.8800E+00
    -27.925  0.0000E+00  0.8800E+00
    -27.675  0.0000E+00  0.8800E+00
    -27.424  0.0000E+00  0.8800E+00
    -27.173  0.0000E+00  0.8800E+00
    -26.922  0.0000E+00  0.8800E+00
    -26.671  0.0000E+00  0.8800E+00
    -26.421  0.0000E+00  0.8800E+00
    -26.170  0.2037E-10  0.8800E+00
    -25.919  0.4518E-03  0.8801E+00
    -25.668  0.2505E+00  0.9430E+00
    -25.417  0.5156E+00  0.1072E+01
    -25.167  0.8624E+00  0.1289E+01
    -24.916  0.4561E-01  0.1300E+01
    -24.665  0.3013E-05  0.1300E+01
    -24.414  0.1403E-13  0.1300E+01
    -24.163  0.7127E-05  0.1300E+01
    -23.913  0.4445E-01  0.1311E+01
    -23.662  0.3541E+00  0.1400E+01
    -23.411  0.6076E+00  0.1552E+01
    -23.160  0.3966E+00  0.1652E+01
    -22.909  0.3532E-01  0.1661E+01
    -22.658  0.1650E+00  0.1702E+01
    -22.408  0.4952E+00  0.1826E+01
    -22.157  0.2896E+00  0.1899E+01
    -21.906  0.4330E+00  0.2007E+01
    -21.655  0.4987E-01  0.2020E+01
    -21.404  0.2822E-05  0.2020E+01
    -21.154  0.1708E-14  0.2020E+01
    -20.903  0.0000E+00  0.2020E+01
    -20.652  0.0000E+00  0.2020E+01
    -20.401  0.0000E+00  0.2020E+01
    -20.150  0.0000E+00  0.2020E+01
    -19.900  0.7527E-11  0.2020E+01
    -19.649  0.2107E-03  0.2020E+01
    -19.398  0.1218E+00  0.2051E+01
    -19.147  0.3477E+00  0.2138E+01
    -18.896  0.2384E+00  0.2198E+01
    -18.646  0.4071E+00  0.2300E+01
    -18.395  0.3086E+00  0.2377E+01
    -18.144  0.9045E-01  0.2400E+01
    -17.893  0.1597E+00  0.2440E+01
    -17.642  0.6256E-03  0.2440E+01
    -17.391  0.5836E-10  0.2440E+01
    -17.141  0.0000E+00  0.2440E+01
    -16.890  0.0000E+00  0.2440E+01
    -16.639  0.0000E+00  0.2440E+01
    -16.388  0.0000E+00  0.2440E+01
    -16.137  0.0000E+00  0.2440E+01
    -15.887  0.0000E+00  0.2440E+01
    -15.636  0.0000E+00  0.2440E+01
    -15.385  0.0000E+00  0.2440E+01
    -15.134  0.0000E+00  0.2440E+01
    -14.883  0.0000E+00  0.2440E+01
    -14.633  0.0000E+00  0.2440E+01
    -14.382  0.0000E+00  0.2440E+01
    -14.131  0.0000E+00  0.2440E+01
    -13.880  0.0000E+00  0.2440E+01
    -13.629  0.0000E+00  0.2440E+01
    -13.379  0.0000E+00  0.2440E+01
    -13.128  0.0000E+00  0.2440E+01
    -12.877  0.0000E+00  0.2440E+01
    -12.626  0.0000E+00  0.2440E+01
    -12.375  0.0000E+00  0.2440E+01
    -12.124  0.0000E+00  0.2440E+01
    -11.874  0.0000E+00  0.2440E+01
    -11.623  0.0000E+00  0.2440E+01
    -11.372  0.0000E+00  0.2440E+01
    -11.121  0.0000E+00  0.2440E+01
    -10.870  0.0000E+00  0.2440E+01
    -10.620  0.0000E+00  0.2440E+01
    -10.369  0.0000E+00  0.2440E+01
    -10.118  0.0000E+00  0.2440E+01
     -9.867  0.0000E+00  0.2440E+01
     -9.616  0.0000E+00  0.2440E+01
     -9.366  0.0000E+00  0.2440E+01
     -9.115  0.0000E+00  0.2440E+01
     -8.864  0.0000E+00  0.2440E+01
     -8.613  0.0000E+00  0.2440E+01
     -8.362  0.0000E+00  0.2440E+01
     -8.112  0.1279E-16  0.2440E+01
     -7.861  0.4873E-07  0.2440E+01
     -7.610  0.1781E-02  0.2440E+01
     -7.359  0.4105E-01  0.2451E+01
     -7.108  0.4605E-01  0.2462E+01
     -6.857  0.1362E+00  0.2496E+01
     -6.607  0.2551E+00  0.2560E+01
     -6.356  0.2544E+00  0.2624E+01
     -6.105  0.1624E+00  0.2665E+01
     -5.854  0.1082E+00  0.2692E+01
     -5.603  0.3078E-01  0.2700E+01
     -5.353  0.7042E-03  0.2700E+01
     -5.102  0.2368E-08  0.2700E+01
     -4.851  0.0000E+00  0.2700E+01
     -4.600  0.0000E+00  0.2700E+01
     -4.349  0.9281E-15  0.2700E+01
     -4.099  0.5501E-06  0.2700E+01
     -3.848  0.4218E-02  0.2701E+01
     -3.597  0.5675E-01  0.2715E+01
     -3.346  0.5395E-01  0.2729E+01
     -3.095  0.1060E+00  0.2755E+01
     -2.845  0.1275E+00  0.2787E+01
     -2.594  0.1932E+00  0.2836E+01
     -2.343  0.2976E+00  0.2911E+01
     -2.092  0.2944E+00  0.2984E+01
     -1.841  0.2304E+00  0.3042E+01
     -1.591  0.1162E+00  0.3071E+01
     -1.340  0.3345E-01  0.3080E+01
     -1.089  0.1286E-02  0.3080E+01
     -0.838  0.1363E-06  0.3080E+01
     -0.587  0.1305E-15  0.3080E+01
     -0.336  0.0000E+00  0.3080E+01
     -0.086  0.0000E+00  0.3080E+01
      0.165  0.0000E+00  0.3080E+01
      0.416  0.2383E-14  0.3080E+01
      0.667  0.6580E-06  0.3080E+01
      0.918  0.2380E-02  0.3081E+01
      1.168  0.1699E-01  0.3085E+01
      1.419  0.8670E-01  0.3107E+01
      1.670  0.1072E+00  0.3134E+01
      1.921  0.1319E+00  0.3167E+01
      2.172  0.2260E+00  0.3223E+01
      2.422  0.3344E+00  0.3307E+01
      2.673  0.2816E+00  0.3378E+01
      2.924  0.3109E+00  0.3456E+01
      3.175  0.3481E+00  0.3543E+01
      3.426  0.4089E+00  0.3646E+01
      3.676  0.5423E+00  0.3782E+01
      3.927  0.5322E+00  0.3915E+01
      4.178  0.5192E+00  0.4045E+01
      4.429  0.6083E+00  0.4198E+01
      4.680  0.6860E+00  0.4370E+01
      4.931  0.5996E+00  0.4520E+01
      5.181  0.4975E+00  0.4645E+01
      5.432  0.4211E+00  0.4751E+01
      5.683  0.3179E+00  0.4830E+01
      5.934  0.2728E+00  0.4899E+01
      6.185  0.1818E+00  0.4944E+01
      6.435  0.1631E+00  0.4985E+01
      6.686  0.6486E-01  0.5002E+01
      6.937  0.6296E-01  0.5017E+01
      7.188  0.1644E+00  0.5059E+01
      7.439  0.1875E+00  0.5106E+01
      7.689  0.1448E+00  0.5142E+01
      7.940  0.1645E+00  0.5183E+01
      8.191  0.1642E+00  0.5224E+01
      8.442  0.2209E+00  0.5280E+01
      8.693  0.2797E+00  0.5350E+01
      8.943  0.3528E+00  0.5439E+01
      9.194  0.4015E+00  0.5539E+01
      9.445  0.4499E+00  0.5652E+01
      9.696  0.4871E+00  0.5774E+01
      9.947  0.4570E+00  0.5889E+01
     10.198  0.5175E+00  0.6019E+01
     10.448  0.5078E+00  0.6146E+01
     10.699  0.4950E+00  0.6270E+01
     10.950  0.4868E+00  0.6392E+01
     11.201  0.4678E+00  0.6510E+01
     11.452  0.4524E+00  0.6623E+01
     11.702  0.3265E+00  0.6705E+01
     11.953  0.5990E-01  0.6720E+01
     12.204  0.1798E-03  0.6720E+01
     12.455  0.2825E-10  0.6720E+01
     12.706  0.0000E+00  0.6720E+01
     12.956  0.0000E+00  0.6720E+01
     13.207  0.0000E+00  0.6720E+01
     13.458  0.0000E+00  0.6720E+01
     13.709  0.0000E+00  0.6720E+01
     13.960  0.0000E+00  0.6720E+01
     14.210  0.0000E+00  0.6720E+01
     14.461  0.0000E+00  0.6720E+01
     14.712  0.0000E+00  0.6720E+01
     14.963  0.0000E+00  0.6720E+01
     15.214  0.0000E+00  0.6720E+01
