 running on   24 total cores
 distrk:  each k-point on   24 cores,    1 groups
 distr:  one band on    1 cores,   24 groups
 using from now: INCAR     
 vasp.5.4.4.18Apr17-6-g9f103f2a35 (build Oct 18 2021 20:38:43) complex          
  
 POSCAR found type information on POSCAR  Ti Nb Hf N  C  Zr V 
 POSCAR found :  7 types and      64 ions
 scaLAPACK will be used

 ----------------------------------------------------------------------------- 
|                                                                             |
|           W    W    AA    RRRRR   N    N  II  N    N   GGGG   !!!           |
|           W    W   A  A   R    R  NN   N  II  NN   N  G    G  !!!           |
|           W    W  A    A  R    R  N N  N  II  N N  N  G       !!!           |
|           W WW W  AAAAAA  RRRRR   N  N N  II  N  N N  G  GGG   !            |
|           WW  WW  A    A  R   R   N   NN  II  N   NN  G    G                |
|           W    W  A    A  R    R  N    N  II  N    N   GGGG   !!!           |
|                                                                             |
|      For optimal performance we recommend to set                            |
|        NCORE= 4 - approx SQRT( number of cores)                             |
|      NCORE specifies how many cores store one orbital (NPAR=cpu/NCORE).     |
|      This setting can  greatly improve the performance of VASP for DFT.     |
|      The default,   NCORE=1            might be grossly inefficient         |
|      on modern multi-core architectures or massively parallel machines.     |
|      Do your own testing !!!!                                               |
|      Unfortunately you need to use the default for GW and RPA calculations. |
|      (for HF NCORE is supported but not extensively tested yet)             |
|                                                                             |
 ----------------------------------------------------------------------------- 


 ----------------------------------------------------------------------------- 
|                                                                             |
|  ADVICE TO THIS USER RUNNING 'VASP/VAMP'   (HEAR YOUR MASTER'S VOICE ...):  |
|                                                                             |
|      You have a (more or less) 'large supercell' and for larger cells       |
|      it might be more efficient to use real space projection operators      |
|      So try LREAL= Auto  in the INCAR   file.                               |
|      Mind: If you want to do a very accurate calculations keep the          |
|      reciprocal projection scheme          (i.e. LREAL=.FALSE.)             |
|                                                                             |
 ----------------------------------------------------------------------------- 

 LDA part: xc-table for Pade appr. of Perdew
 POSCAR, INCAR and KPOINTS ok, starting setup
 FFT: planning ...
 WAVECAR not read
 entering main loop
       N       E                     dE             d eps       ncg     rms          rms(c)
DAV:   1     0.491272337134E+04    0.49127E+04   -0.22791E+05  9432   0.126E+03
DAV:   2     0.242229577990E+03   -0.46705E+04   -0.45204E+04  9768   0.517E+02
DAV:   3    -0.553699408626E+03   -0.79593E+03   -0.76150E+03 16392   0.158E+02
DAV:   4    -0.638225722308E+03   -0.84526E+02   -0.82360E+02 15240   0.531E+01
DAV:   5    -0.652518406410E+03   -0.14293E+02   -0.14013E+02 18432   0.207E+01    0.764E+01
RMM:   6    -0.832287783769E+03   -0.17977E+03   -0.30423E+03 12488   0.769E+01    0.138E+02
RMM:   7    -0.506991254419E+03    0.32530E+03   -0.29001E+02 13913   0.353E+01    0.488E+01
RMM:   8    -0.481752618220E+03    0.25239E+02   -0.71009E+01 13414   0.144E+01    0.260E+01
RMM:   9    -0.475064487236E+03    0.66881E+01   -0.29403E+01 13956   0.873E+00    0.252E+01
RMM:  10    -0.474784062504E+03    0.28042E+00   -0.13869E+01 14752   0.441E+00    0.188E+01
RMM:  11    -0.482179594675E+03   -0.73955E+01   -0.18411E+01 13811   0.596E+00    0.464E+01
RMM:  12    -0.476055482932E+03    0.61241E+01   -0.12188E+01 14083   0.514E+00    0.317E+01
RMM:  13    -0.475682826092E+03    0.37266E+00   -0.79964E+00 14241   0.374E+00    0.320E+01
RMM:  14    -0.473427036523E+03    0.22558E+01   -0.52965E+00 13667   0.276E+00    0.177E+01
RMM:  15    -0.473337174460E+03    0.89862E-01   -0.29453E+00 13869   0.209E+00    0.173E+01
RMM:  16    -0.472610435751E+03    0.72674E+00   -0.24282E+00 13597   0.205E+00    0.139E+01
RMM:  17    -0.472244718369E+03    0.36572E+00   -0.14443E+00 13908   0.193E+00    0.132E+01
RMM:  18    -0.472720100611E+03   -0.47538E+00   -0.10894E+00 14075   0.142E+00    0.206E+01
RMM:  19    -0.471925954585E+03    0.79415E+00   -0.80489E-01 13817   0.116E+00    0.703E+00
RMM:  20    -0.471885207845E+03    0.40747E-01   -0.83756E-01 13851   0.117E+00    0.416E+00
RMM:  21    -0.471868856998E+03    0.16351E-01   -0.37528E-01 13643   0.900E-01    0.488E+00
RMM:  22    -0.471789416503E+03    0.79440E-01   -0.22778E-01 13967   0.591E-01    0.246E+00
RMM:  23    -0.471819128013E+03   -0.29712E-01   -0.15859E-01 14197   0.545E-01    0.371E+00
RMM:  24    -0.471788624663E+03    0.30503E-01   -0.97079E-02 14096   0.382E-01    0.200E+00
RMM:  25    -0.471778497486E+03    0.10127E-01   -0.78238E-02 13885   0.284E-01    0.967E-01
RMM:  26    -0.471781320620E+03   -0.28231E-02   -0.65765E-02 14022   0.290E-01    0.779E-01
RMM:  27    -0.471781686254E+03   -0.36563E-03   -0.42206E-02 13613   0.205E-01    0.501E-01
RMM:  28    -0.471783301918E+03   -0.16157E-02   -0.30880E-02 13356   0.109E-01    0.435E-01
RMM:  29    -0.471784573028E+03   -0.12711E-02   -0.22880E-02 13338   0.930E-02    0.215E-01
RMM:  30    -0.471786424339E+03   -0.18513E-02   -0.18569E-02 13000   0.818E-02    0.292E-01
RMM:  31    -0.471787533557E+03   -0.11092E-02   -0.13864E-02 12111   0.695E-02    0.191E-01
RMM:  32    -0.471788448849E+03   -0.91529E-03   -0.11213E-02 11894   0.555E-02    0.121E-01
RMM:  33    -0.471789268374E+03   -0.81952E-03   -0.82832E-03 11569   0.474E-02    0.140E-01
RMM:  34    -0.471789818042E+03   -0.54967E-03   -0.67902E-03 11413   0.377E-02    0.277E-02
RMM:  35    -0.471790359423E+03   -0.54138E-03   -0.55847E-03 11198   0.333E-02    0.410E-02
RMM:  36    -0.471790785056E+03   -0.42563E-03   -0.44485E-03 10739   0.292E-02    0.257E-02
RMM:  37    -0.471791132043E+03   -0.34699E-03   -0.36193E-03 10438   0.252E-02    0.224E-02
RMM:  38    -0.471791407590E+03   -0.27555E-03   -0.28481E-03 10109   0.212E-02    0.257E-02
RMM:  39    -0.471791636168E+03   -0.22858E-03   -0.24312E-03 10404   0.195E-02    0.760E-03
RMM:  40    -0.471791818504E+03   -0.18234E-03   -0.18875E-03  9163   0.174E-02    0.753E-03
RMM:  41    -0.471791968033E+03   -0.14953E-03   -0.15495E-03  7967   0.156E-02    0.472E-03
RMM:  42    -0.471792089097E+03   -0.12106E-03   -0.12597E-03  8222   0.145E-02    0.617E-03
RMM:  43    -0.471792192291E+03   -0.10319E-03   -0.10642E-03  7636   0.137E-02    0.127E-02
RMM:  44    -0.471792272815E+03   -0.80523E-04   -0.84923E-04  7397   0.128E-02    0.116E-02
RMM:  45    -0.471792340782E+03   -0.67967E-04   -0.71701E-04  8126   0.127E-02    0.668E-03
RMM:  46    -0.471792396433E+03   -0.55651E-04   -0.58498E-04  8503   0.120E-02    0.317E-03
RMM:  47    -0.471792441223E+03   -0.44790E-04   -0.47062E-04  7352   0.114E-02    0.327E-03
RMM:  48    -0.471792478453E+03   -0.37230E-04   -0.39516E-04  6948   0.110E-02    0.343E-03
RMM:  49    -0.471792509122E+03   -0.30669E-04   -0.32781E-04  7616   0.107E-02    0.134E-03
RMM:  50    -0.471792534918E+03   -0.25796E-04   -0.27500E-04  7318   0.103E-02    0.693E-04
RMM:  51    -0.471792556097E+03   -0.21179E-04   -0.22729E-04  6680   0.974E-03    0.462E-04
RMM:  52    -0.471792573358E+03   -0.17261E-04   -0.18761E-04  6408   0.953E-03    0.918E-04
RMM:  53    -0.471792587837E+03   -0.14479E-04   -0.15957E-04  6454   0.937E-03    0.146E-03
RMM:  54    -0.471792599769E+03   -0.11932E-04   -0.13223E-04  6351   0.903E-03    0.182E-03
RMM:  55    -0.471792609363E+03   -0.95936E-05   -0.10894E-04  6224   0.894E-03    0.238E-03
RMM:  56    -0.471792617667E+03   -0.83046E-05   -0.95272E-05  6362   0.886E-03
   1 F= -.47179262E+03 E0= -.47157638E+03  d E =-.471793E+03
 curvature:   0.00 expect dE= 0.000E+00 dE for cont linesearch  0.000E+00
 trial: gam= 0.00000 g(F)=  0.110E+01 g(S)=  0.292E+03 ort = 0.000E+00 (trialstep = 0.100E+01)
 search vector abs. value=  0.294E+03
 bond charge predicted
       N       E                     dE             d eps       ncg     rms          rms(c)
DAV:   1    -0.400492434523E+04   -0.35331E+04   -0.10604E+05 10104   0.104E+03    0.382E+02
RMM:   2    -0.130328466816E+04    0.27016E+04   -0.74628E+03 14053   0.276E+02    0.185E+02
RMM:   3    -0.542173712759E+03    0.76111E+03   -0.27748E+03 10806   0.188E+02    0.484E+01
RMM:   4    -0.624686796944E+03   -0.82513E+02   -0.89468E+02 13371   0.744E+01    0.437E+01
RMM:   5    -0.574490983428E+03    0.50196E+02   -0.18912E+02 14284   0.314E+01    0.179E+01
RMM:   6    -0.580793071619E+03   -0.63021E+01   -0.76530E+01 15585   0.178E+01    0.209E+01
RMM:   7    -0.583022282498E+03   -0.22292E+01   -0.39937E+01 15483   0.134E+01    0.145E+01
RMM:   8    -0.583995270617E+03   -0.97299E+00   -0.20041E+01 15846   0.981E+00    0.108E+01
RMM:   9    -0.585437263350E+03   -0.14420E+01   -0.11958E+01 15869   0.664E+00    0.807E+00
RMM:  10    -0.586864595904E+03   -0.14273E+01   -0.82994E+00 15931   0.555E+00    0.769E+00
RMM:  11    -0.588145377972E+03   -0.12808E+01   -0.57647E+00 16067   0.416E+00    0.631E+00
RMM:  12    -0.589238293136E+03   -0.10929E+01   -0.43926E+00 16237   0.359E+00    0.571E+00
RMM:  13    -0.590003434986E+03   -0.76514E+00   -0.36645E+00 15670   0.365E+00    0.358E+00
RMM:  14    -0.590150955235E+03   -0.14752E+00   -0.24911E+00 15833   0.301E+00    0.317E+00
RMM:  15    -0.590166195959E+03   -0.15241E-01   -0.14971E+00 15903   0.213E+00    0.135E+00
RMM:  16    -0.590209863341E+03   -0.43667E-01   -0.78976E-01 16309   0.159E+00    0.109E+00
RMM:  17    -0.590241350573E+03   -0.31487E-01   -0.43226E-01 16313   0.108E+00    0.490E-01
RMM:  18    -0.590258645770E+03   -0.17295E-01   -0.23148E-01 16054   0.876E-01    0.289E-01
RMM:  19    -0.590270075154E+03   -0.11429E-01   -0.14092E-01 16358   0.568E-01    0.398E-01
RMM:  20    -0.590275715337E+03   -0.56402E-02   -0.75360E-02 16129   0.500E-01    0.368E-01
RMM:  21    -0.590279131692E+03   -0.34164E-02   -0.46366E-02 16189   0.348E-01    0.158E-01
RMM:  22    -0.590281095816E+03   -0.19641E-02   -0.25273E-02 15807   0.302E-01    0.164E-01
RMM:  23    -0.590282287784E+03   -0.11920E-02   -0.15668E-02 16334   0.204E-01    0.586E-02
RMM:  24    -0.590283000655E+03   -0.71287E-03   -0.86798E-03 15739   0.172E-01    0.368E-02
RMM:  25    -0.590283487318E+03   -0.48666E-03   -0.57132E-03 15759   0.121E-01    0.208E-02
RMM:  26    -0.590283757897E+03   -0.27058E-03   -0.32115E-03 15287   0.105E-01    0.157E-02
RMM:  27    -0.590283945921E+03   -0.18802E-03   -0.21810E-03 15370   0.734E-02    0.108E-02
RMM:  28    -0.590284045714E+03   -0.99793E-04   -0.12200E-03 14509   0.660E-02    0.784E-03
RMM:  29    -0.590284123069E+03   -0.77355E-04   -0.87941E-04 14536   0.469E-02    0.193E-02
RMM:  30    -0.590284161287E+03   -0.38218E-04   -0.48512E-04 13466   0.414E-02    0.164E-02
RMM:  31    -0.590284191561E+03   -0.30274E-04   -0.35073E-04 13245   0.304E-02    0.220E-02
RMM:  32    -0.590284207895E+03   -0.16334E-04   -0.20099E-04 11910   0.277E-02    0.266E-02
RMM:  33    -0.590284219990E+03   -0.12096E-04   -0.14567E-04 11449   0.218E-02    0.305E-02
RMM:  34    -0.590284227438E+03   -0.74475E-05   -0.85422E-05 10081   0.202E-02
   2 F= -.59028423E+03 E0= -.59021378E+03  d E =-.118492E+03
 trial-energy change: -118.491610  1 .order   16.957913 -293.575409  327.491236
 step:   0.7304(harm=  0.4727)  dis= 0.02885  next Energy=  -631.778349 (dE=-0.160E+03)
 bond charge predicted
       N       E                     dE             d eps       ncg     rms          rms(c)
DAV:   1    -0.104351019139E+04   -0.45323E+03   -0.81342E+03 10944   0.303E+02    0.200E+02
RMM:   2    -0.146137140053E+04   -0.41786E+03   -0.26939E+03 11597   0.121E+02    0.116E+02
RMM:   3    -0.889813186542E+03    0.57156E+03   -0.74794E+02 13706   0.609E+01    0.758E+01
RMM:   4    -0.697878625014E+03    0.19193E+03   -0.17643E+02 13131   0.351E+01    0.505E+01
RMM:   5    -0.669198609895E+03    0.28680E+02   -0.50982E+02 13990   0.380E+01    0.430E+01
RMM:   6    -0.644562940118E+03    0.24636E+02   -0.60582E+01 13511   0.229E+01    0.229E+01
RMM:   7    -0.647086726202E+03   -0.25238E+01   -0.33624E+01 14285   0.943E+00    0.326E+01
RMM:   8    -0.640451670966E+03    0.66351E+01   -0.97298E+00 13201   0.849E+00    0.210E+01
RMM:   9    -0.637684547004E+03    0.27671E+01   -0.80101E+00 14331   0.506E+00    0.847E+00
RMM:  10    -0.638104634861E+03   -0.42009E+00   -0.39376E+00 14851   0.415E+00    0.970E+00
RMM:  11    -0.637366876757E+03    0.73776E+00   -0.19317E+00 14996   0.244E+00    0.463E+00
RMM:  12    -0.637431108448E+03   -0.64232E-01   -0.82733E-01 15243   0.179E+00    0.495E+00
RMM:  13    -0.637352204416E+03    0.78904E-01   -0.54359E-01 15333   0.118E+00    0.321E+00
RMM:  14    -0.637371220575E+03   -0.19016E-01   -0.41663E-01 15076   0.107E+00    0.312E+00
RMM:  15    -0.637362552261E+03    0.86683E-02   -0.30380E-01 15190   0.912E-01    0.182E+00
RMM:  16    -0.637592165743E+03   -0.22961E+00   -0.77616E-01 14385   0.150E+00    0.381E+00
RMM:  17    -0.637503349671E+03    0.88816E-01   -0.18081E-01 14257   0.105E+00    0.202E+00
RMM:  18    -0.637484507167E+03    0.18843E-01   -0.15882E-01 14709   0.564E-01    0.155E+00
RMM:  19    -0.637469321493E+03    0.15186E-01   -0.11954E-01 14721   0.525E-01    0.409E-01
RMM:  20    -0.637472704674E+03   -0.33832E-02   -0.63107E-02 14854   0.422E-01    0.357E-01
RMM:  21    -0.637477837366E+03   -0.51327E-02   -0.37169E-02 15220   0.278E-01    0.575E-01
RMM:  22    -0.637475482352E+03    0.23550E-02   -0.20737E-02 14367   0.238E-01    0.125E-01
RMM:  23    -0.637476060309E+03   -0.57796E-03   -0.97817E-03 14742   0.144E-01    0.864E-02
RMM:  24    -0.637476428624E+03   -0.36831E-03   -0.53318E-03 14766   0.946E-02    0.649E-02
WARNING in EDDRMM: call to ZHEGV failed, returncode =   8  4      5
RMM:  25    -0.637476681869E+03   -0.25324E-03   -0.33344E-03 14070   0.722E-02    0.438E-02
RMM:  26    -0.637476941308E+03   -0.25944E-03   -0.23859E-03 13585   0.656E-02    0.920E-02
RMM:  27    -0.637476955526E+03   -0.14218E-04   -0.15311E-03 12706   0.547E-02    0.182E-02
RMM:  28    -0.637477023257E+03   -0.67731E-04   -0.85919E-04 11788   0.387E-02    0.258E-02
RMM:  29    -0.637477062762E+03   -0.39505E-04   -0.58970E-04 11670   0.319E-02    0.587E-03
RMM:  30    -0.637477094339E+03   -0.31577E-04   -0.38821E-04 11235   0.269E-02    0.848E-03
RMM:  31    -0.637477114453E+03   -0.20114E-04   -0.25603E-04 10643   0.215E-02    0.762E-03
WARNING in EDDRMM: call to ZHEGV failed, returncode =   8  4     12
RMM:  32    -0.637477125562E+03   -0.11109E-04   -0.16612E-04 10131   0.196E-02    0.654E-03
RMM:  33    -0.637477136571E+03   -0.11008E-04   -0.11979E-04  9768   0.170E-02    0.789E-03
RMM:  34    -0.637477142436E+03   -0.58658E-05   -0.82518E-05  9352   0.147E-02
   3 F= -.63747714E+03 E0= -.63738279E+03  d E =-.165685E+03
 curvature:  -0.18 expect dE=-0.939E+00 dE for cont linesearch -0.402E+00
 ZBRENT: interpolating
 opt :   0.7499  next Energy=  -637.727360 (dE=-0.166E+03)
 bond charge predicted
       N       E                     dE             d eps       ncg     rms          rms(c)
DAV:   1    -0.639535537555E+03   -0.20584E+01   -0.40130E+01 10176   0.211E+01    0.108E+01
RMM:   2    -0.647023660567E+03   -0.74881E+01   -0.22437E+01 11981   0.117E+01    0.305E+01
RMM:   3    -0.638448664432E+03    0.85750E+01   -0.47771E+00 12082   0.569E+00    0.633E+00
RMM:   4    -0.638266249592E+03    0.18241E+00   -0.96483E-01 13021   0.250E+00    0.612E+00
RMM:   5    -0.638141429200E+03    0.12482E+00   -0.44909E-01 12954   0.148E+00    0.521E+00
RMM:   6    -0.637934085953E+03    0.20734E+00   -0.35670E-01 12559   0.140E+00    0.267E+00
RMM:   7    -0.637931688308E+03    0.23976E-02   -0.15685E-01 13066   0.992E-01    0.298E+00
RMM:   8    -0.637883940964E+03    0.47747E-01   -0.66385E-02 13970   0.592E-01    0.980E-01
RMM:   9    -0.637883148914E+03    0.79205E-03   -0.24596E-02 13891   0.339E-01    0.106E+00
RMM:  10    -0.637876431137E+03    0.67178E-02   -0.10307E-02 14016   0.205E-01    0.351E-01
RMM:  11    -0.637877084253E+03   -0.65312E-03   -0.47543E-03 13998   0.133E-01    0.287E-01
RMM:  12    -0.637877884467E+03   -0.80021E-03   -0.32346E-03 14295   0.912E-02    0.289E-01
RMM:  13    -0.637878797256E+03   -0.91279E-03   -0.27300E-03 14029   0.827E-02    0.196E-01
RMM:  14    -0.637880306976E+03   -0.15097E-02   -0.38842E-03 14139   0.938E-02    0.200E-01
RMM:  15    -0.637880575138E+03   -0.26816E-03   -0.26558E-03 13620   0.779E-02    0.131E-01
RMM:  16    -0.637880775909E+03   -0.20077E-03   -0.19820E-03 13193   0.622E-02    0.515E-02
RMM:  17    -0.637880874530E+03   -0.98621E-04   -0.11171E-03 12119   0.473E-02    0.339E-02
RMM:  18    -0.637880924712E+03   -0.50182E-04   -0.65709E-04 11870   0.358E-02    0.256E-02
RMM:  19    -0.637880951563E+03   -0.26851E-04   -0.37072E-04 11436   0.286E-02    0.167E-02
RMM:  20    -0.637880968283E+03   -0.16720E-04   -0.22369E-04 11041   0.235E-02    0.882E-03
RMM:  21    -0.637880976795E+03   -0.85128E-05   -0.12357E-04 10336   0.191E-02    0.547E-03
RMM:  22    -0.637880982372E+03   -0.55766E-05   -0.77600E-05  9601   0.164E-02
   4 F= -.63788098E+03 E0= -.63778877E+03  d E =-.166088E+03
 curvature:  -0.11 expect dE=-0.392E+00 dE for cont linesearch -0.212E-01
 ZBRENT: interpolating
 opt :   0.7578  next Energy=  -637.910884 (dE=-0.166E+03)
 bond charge predicted
       N       E                     dE             d eps       ncg     rms          rms(c)
DAV:   1    -0.638185714705E+03   -0.30474E+00   -0.64982E+00 10752   0.851E+00    0.449E+00
RMM:   2    -0.639632277539E+03   -0.14466E+01   -0.34472E+00 12091   0.454E+00    0.133E+01
RMM:   3    -0.638010698092E+03    0.16216E+01   -0.84663E-01 12081   0.233E+00    0.247E+00
RMM:   4    -0.637991395185E+03    0.19303E-01   -0.16942E-01 12795   0.106E+00    0.293E+00
RMM:   5    -0.637952871969E+03    0.38523E-01   -0.77086E-02 12834   0.587E-01    0.196E+00
RMM:   6    -0.637928981352E+03    0.23891E-01   -0.57051E-02 12849   0.562E-01    0.133E+00
RMM:   7    -0.637923923402E+03    0.50580E-02   -0.26072E-02 12901   0.397E-01    0.115E+00
RMM:   8    -0.637916439618E+03    0.74838E-02   -0.12396E-02 13771   0.267E-01    0.436E-01
RMM:   9    -0.637916556911E+03   -0.11729E-03   -0.46858E-03 13554   0.149E-01    0.481E-01
RMM:  10    -0.637915192031E+03    0.13649E-02   -0.20998E-03 13753   0.909E-02    0.142E-01
RMM:  11    -0.637915329620E+03   -0.13759E-03   -0.89368E-04 13170   0.581E-02    0.133E-01
RMM:  12    -0.637915408667E+03   -0.79047E-04   -0.55362E-04 12335   0.386E-02    0.110E-01
RMM:  13    -0.637915583546E+03   -0.17488E-03   -0.41578E-04 12104   0.355E-02    0.872E-02
RMM:  14    -0.637915922417E+03   -0.33887E-03   -0.68327E-04 12781   0.408E-02    0.782E-02
RMM:  15    -0.637916011642E+03   -0.89225E-04   -0.48347E-04 12215   0.376E-02    0.583E-02
RMM:  16    -0.637916064470E+03   -0.52828E-04   -0.39606E-04 11854   0.320E-02    0.175E-02
RMM:  17    -0.637916085433E+03   -0.20963E-04   -0.21944E-04 11042   0.267E-02    0.121E-02
RMM:  18    -0.637916096843E+03   -0.11410E-04   -0.13505E-04 10553   0.196E-02    0.109E-02
RMM:  19    -0.637916101723E+03   -0.48800E-05   -0.65477E-05  9130   0.167E-02
   5 F= -.63791610E+03 E0= -.63782473E+03  d E =-.166123E+03
 curvature:  -0.16 expect dE=-0.545E+00 dE for cont linesearch -0.826E-05
 trial: gam= 0.01216 g(F)=  0.343E+01 g(S)=  0.172E-01 ort =-0.124E+00 (trialstep = 0.952E+00)
 search vector abs. value=  0.349E+01
 bond charge predicted
       N       E                     dE             d eps       ncg     rms          rms(c)
DAV:   1    -0.635285112739E+03    0.26310E+01   -0.47470E+02 10080   0.741E+01    0.467E+00
RMM:   2    -0.640481252563E+03   -0.51961E+01   -0.54647E+01 14020   0.198E+01    0.628E+00
RMM:   3    -0.640397363461E+03    0.83889E-01   -0.46399E+00 13391   0.727E+00    0.550E+00
RMM:   4    -0.640174742026E+03    0.22262E+00   -0.10906E+00 14820   0.302E+00    0.292E+00
RMM:   5    -0.640153194931E+03    0.21547E-01   -0.50135E-01 14258   0.138E+00    0.261E+00
RMM:   6    -0.640154867074E+03   -0.16721E-02   -0.33100E-01 14206   0.123E+00    0.276E+00
RMM:   7    -0.640120245798E+03    0.34621E-01   -0.18816E-01 14362   0.859E-01    0.188E+00
RMM:   8    -0.640092766767E+03    0.27479E-01   -0.76425E-02 14977   0.599E-01    0.728E-01
RMM:   9    -0.640102687745E+03   -0.99210E-02   -0.44093E-02 15265   0.368E-01    0.130E+00
RMM:  10    -0.640094118772E+03    0.85690E-02   -0.27123E-02 15272   0.298E-01    0.368E-01
RMM:  11    -0.640095213428E+03   -0.10947E-02   -0.13716E-02 14961   0.210E-01    0.398E-01
RMM:  12    -0.640094985036E+03    0.22839E-03   -0.78499E-03 15081   0.140E-01    0.194E-01
RMM:  13    -0.640095335843E+03   -0.35081E-03   -0.48716E-03 14726   0.114E-01    0.118E-01
RMM:  14    -0.640095697902E+03   -0.36206E-03   -0.31546E-03 14871   0.878E-02    0.777E-02
RMM:  15    -0.640095872519E+03   -0.17462E-03   -0.18358E-03 13841   0.715E-02    0.796E-02
RMM:  16    -0.640095927753E+03   -0.55234E-04   -0.10910E-03 13331   0.521E-02    0.489E-02
RMM:  17    -0.640095972270E+03   -0.44517E-04   -0.70684E-04 12444   0.438E-02    0.229E-02
RMM:  18    -0.640096004498E+03   -0.32228E-04   -0.42943E-04 12284   0.331E-02    0.121E-02
RMM:  19    -0.640096024311E+03   -0.19813E-04   -0.25694E-04 11664   0.277E-02    0.523E-03
WARNING in EDDRMM: call to ZHEGV failed, returncode =   8  4     11
RMM:  20    -0.640096036969E+03   -0.12658E-04   -0.16050E-04 10920   0.219E-02    0.358E-03
RMM:  21    -0.640096046314E+03   -0.93457E-05   -0.11205E-04 10448   0.192E-02    0.236E-03
RMM:  22    -0.640096050866E+03   -0.45515E-05   -0.61694E-05  9829   0.162E-02
   6 F= -.64009605E+03 E0= -.64001589E+03  d E =-.217995E+01
 trial-energy change:   -2.179949  1 .order   -2.155470   -3.277857   -1.033083
 step:   1.3522(harm=  1.3895)  dis= 0.09285  next Energy=  -640.315376 (dE=-0.240E+01)
 bond charge predicted
       N       E                     dE             d eps       ncg     rms          rms(c)
DAV:   1    -0.639452338656E+03    0.64371E+00   -0.84530E+01  9744   0.313E+01    0.201E+00
RMM:   2    -0.640381185797E+03   -0.92885E+00   -0.97304E+00 13940   0.849E+00    0.277E+00
RMM:   3    -0.640359488140E+03    0.21698E-01   -0.83592E-01 13654   0.301E+00    0.230E+00
RMM:   4    -0.640323600444E+03    0.35888E-01   -0.18937E-01 15037   0.124E+00    0.127E+00
RMM:   5    -0.640319934103E+03    0.36663E-02   -0.88939E-02 14493   0.542E-01    0.109E+00
RMM:   6    -0.640318458459E+03    0.14756E-02   -0.55617E-02 14208   0.508E-01    0.106E+00
RMM:   7    -0.640313760134E+03    0.46983E-02   -0.32420E-02 14413   0.358E-01    0.739E-01
RMM:   8    -0.640309992557E+03    0.37676E-02   -0.13849E-02 14869   0.258E-01    0.371E-01
RMM:   9    -0.640310694352E+03   -0.70180E-03   -0.77978E-03 14989   0.161E-01    0.401E-01
RMM:  10    -0.640309988651E+03    0.70570E-03   -0.46528E-03 14896   0.125E-01    0.121E-01
RMM:  11    -0.640310214231E+03   -0.22558E-03   -0.23782E-03 13920   0.880E-02    0.136E-01
RMM:  12    -0.640310260029E+03   -0.45797E-04   -0.14315E-03 13681   0.621E-02    0.796E-02
RMM:  13    -0.640310350169E+03   -0.90140E-04   -0.90217E-04 13134   0.539E-02    0.466E-02
RMM:  14    -0.640310421554E+03   -0.71385E-04   -0.56935E-04 12958   0.418E-02    0.433E-02
RMM:  15    -0.640310448663E+03   -0.27109E-04   -0.34174E-04 12222   0.353E-02    0.341E-02
RMM:  16    -0.640310459330E+03   -0.10667E-04   -0.21090E-04 11659   0.272E-02    0.107E-02
RMM:  17    -0.640310470778E+03   -0.11448E-04   -0.13880E-04 11233   0.228E-02    0.732E-03
WARNING in EDDRMM: call to ZHEGV failed, returncode =   8  4      7
RMM:  18    -0.640310476141E+03   -0.53623E-05   -0.71493E-05 10218   0.178E-02
   7 F= -.64031048E+03 E0= -.64023594E+03  d E =-.239437E+01
 curvature:  -0.70 expect dE=-0.694E+00 dE for cont linesearch -0.162E-03
 trial: gam= 0.26222 g(F)=  0.650E+00 g(S)=  0.344E+00 ort =-0.285E-01 (trialstep = 0.103E+01)
 search vector abs. value=  0.122E+01
 bond charge predicted
       N       E                     dE             d eps       ncg     rms          rms(c)
DAV:   1    -0.639611333361E+03    0.69914E+00   -0.23210E+02 10392   0.621E+01    0.149E+01
RMM:   2    -0.653386341747E+03   -0.13775E+02   -0.60279E+01 12428   0.219E+01    0.263E+01
RMM:   3    -0.641275596007E+03    0.12111E+02   -0.11283E+01 12911   0.994E+00    0.511E+00
RMM:   4    -0.641247107155E+03    0.28489E-01   -0.24756E+00 14018   0.388E+00    0.719E+00
RMM:   5    -0.640868326060E+03    0.37878E+00   -0.77369E-01 14262   0.204E+00    0.413E+00
RMM:   6    -0.640742146735E+03    0.12618E+00   -0.49343E-01 14034   0.160E+00    0.290E+00
RMM:   7    -0.640790579137E+03   -0.48432E-01   -0.34319E-01 14148   0.135E+00    0.391E+00
RMM:   8    -0.640682529992E+03    0.10805E+00   -0.15576E-01 14306   0.880E-01    0.136E+00
RMM:   9    -0.640679370425E+03    0.31596E-02   -0.62086E-02 14569   0.540E-01    0.122E+00
RMM:  10    -0.640671550584E+03    0.78198E-02   -0.29406E-02 14509   0.336E-01    0.474E-01
RMM:  11    -0.640672715732E+03   -0.11651E-02   -0.15305E-02 14889   0.227E-01    0.450E-01
RMM:  12    -0.640672981352E+03   -0.26562E-03   -0.88923E-03 14973   0.155E-01    0.284E-01
RMM:  13    -0.640674700262E+03   -0.17189E-02   -0.70283E-03 15056   0.131E-01    0.174E-01
RMM:  14    -0.640675988317E+03   -0.12881E-02   -0.80025E-03 14962   0.136E-01    0.895E-02
RMM:  15    -0.640676245965E+03   -0.25765E-03   -0.42794E-03 13978   0.102E-01    0.121E-01
RMM:  16    -0.640676306529E+03   -0.60564E-04   -0.23816E-03 13318   0.728E-02    0.611E-02
RMM:  17    -0.640676368320E+03   -0.61792E-04   -0.12909E-03 12675   0.546E-02    0.448E-02
RMM:  18    -0.640676409285E+03   -0.40965E-04   -0.72150E-04 12394   0.411E-02    0.252E-02
RMM:  19    -0.640676437163E+03   -0.27878E-04   -0.43890E-04 12097   0.346E-02    0.116E-02
RMM:  20    -0.640676456234E+03   -0.19071E-04   -0.27508E-04 11816   0.274E-02    0.612E-03
RMM:  21    -0.640676469225E+03   -0.12992E-04   -0.16461E-04 11155   0.233E-02    0.471E-03
RMM:  22    -0.640676477975E+03   -0.87492E-05   -0.10089E-04 10338   0.191E-02    0.214E-03
RMM:  23    -0.640676483287E+03   -0.53128E-05   -0.62929E-05  9795   0.169E-02
   8 F= -.64067648E+03 E0= -.64061245E+03  d E =-.366007E+00
 trial-energy change:   -0.366007  1 .order   -0.367704   -1.017745    0.282336
 step:   0.8063(harm=  0.8076)  dis= 0.04372  next Energy=  -640.707347 (dE=-0.397E+00)
 bond charge predicted
       N       E                     dE             d eps       ncg     rms          rms(c)
DAV:   1    -0.640664668281E+03    0.11810E-01   -0.11113E+01 11016   0.138E+01    0.301E+00
RMM:   2    -0.641352748966E+03   -0.68808E+00   -0.33316E+00 12089   0.516E+00    0.775E+00
RMM:   3    -0.640749395141E+03    0.60335E+00   -0.55018E-01 12336   0.237E+00    0.166E+00
RMM:   4    -0.640747593806E+03    0.18013E-02   -0.12642E-01 14216   0.852E-01    0.201E+00
RMM:   5    -0.640718006108E+03    0.29588E-01   -0.37984E-02 13736   0.470E-01    0.948E-01
RMM:   6    -0.640715208268E+03    0.27978E-02   -0.24159E-02 13850   0.370E-01    0.101E+00
RMM:   7    -0.640709575216E+03    0.56331E-02   -0.17022E-02 13613   0.325E-01    0.602E-01
RMM:   8    -0.640708937150E+03    0.63807E-03   -0.87410E-03 13919   0.217E-01    0.553E-01
RMM:   9    -0.640706922618E+03    0.20145E-02   -0.33465E-03 13698   0.133E-01    0.190E-01
WARNING in EDDRMM: call to ZHEGV failed, returncode =   8  4      7
RMM:  10    -0.640706734297E+03    0.18832E-03   -0.13895E-03 13878   0.773E-02    0.852E-02
RMM:  11    -0.640706830811E+03   -0.96514E-04   -0.72188E-04 13204   0.472E-02    0.850E-02
RMM:  12    -0.640706872104E+03   -0.41292E-04   -0.40956E-04 12457   0.344E-02    0.655E-02
RMM:  13    -0.640706973980E+03   -0.10188E-03   -0.32904E-04 12132   0.307E-02    0.409E-02
RMM:  14    -0.640707089581E+03   -0.11560E-03   -0.37288E-04 12475   0.328E-02    0.573E-02
RMM:  15    -0.640707093770E+03   -0.41891E-05   -0.23332E-04 11836   0.281E-02    0.181E-02
RMM:  16    -0.640707099672E+03   -0.59020E-05   -0.12153E-04 10724   0.209E-02    0.110E-02
RMM:  17    -0.640707101649E+03   -0.19771E-05   -0.61657E-05  9755   0.166E-02
   9 F= -.64070710E+03 E0= -.64064090E+03  d E =-.396626E+00
 curvature:  -0.50 expect dE=-0.257E+00 dE for cont linesearch -0.128E-04
 trial: gam= 0.51642 g(F)=  0.262E+00 g(S)=  0.253E+00 ort =-0.560E-02 (trialstep = 0.987E+00)
 search vector abs. value=  0.834E+00
 bond charge predicted
       N       E                     dE             d eps       ncg     rms          rms(c)
DAV:   1    -0.638257742302E+03    0.24494E+01   -0.15047E+02 10080   0.529E+01    0.530E+00
RMM:   2    -0.642334567645E+03   -0.40768E+01   -0.37434E+01 13235   0.157E+01    0.102E+01
RMM:   3    -0.641076028126E+03    0.12585E+01   -0.34410E+00 12877   0.628E+00    0.376E+00
RMM:   4    -0.641064883289E+03    0.11145E-01   -0.81699E-01 14897   0.197E+00    0.371E+00
RMM:   5    -0.640952532991E+03    0.11235E+00   -0.19223E-01 13875   0.114E+00    0.184E+00
RMM:   6    -0.640941060859E+03    0.11472E-01   -0.13140E-01 13946   0.839E-01    0.188E+00
RMM:   7    -0.640931899482E+03    0.91614E-02   -0.99042E-02 14209   0.744E-01    0.163E+00
RMM:   8    -0.640915977833E+03    0.15922E-01   -0.48684E-02 14320   0.474E-01    0.966E-01
RMM:   9    -0.640909966398E+03    0.60114E-02   -0.19936E-02 14669   0.301E-01    0.390E-01
RMM:  10    -0.640909909609E+03    0.56789E-04   -0.95018E-03 14894   0.181E-01    0.221E-01
RMM:  11    -0.640910342440E+03   -0.43283E-03   -0.51161E-03 14648   0.121E-01    0.202E-01
RMM:  12    -0.640910554273E+03   -0.21183E-03   -0.30040E-03 14723   0.864E-02    0.142E-01
RMM:  13    -0.640910961643E+03   -0.40737E-03   -0.20498E-03 14510   0.678E-02    0.948E-02
RMM:  14    -0.640911392727E+03   -0.43108E-03   -0.16546E-03 14087   0.661E-02    0.137E-01
RMM:  15    -0.640911362060E+03    0.30667E-04   -0.10744E-03 13523   0.546E-02    0.254E-02
RMM:  16    -0.640911398145E+03   -0.36085E-04   -0.58676E-04 12424   0.408E-02    0.182E-02
RMM:  17    -0.640911417527E+03   -0.19381E-04   -0.33799E-04 11766   0.301E-02    0.150E-02
RMM:  18    -0.640911430418E+03   -0.12892E-04   -0.19248E-04 11215   0.242E-02    0.979E-03
RMM:  19    -0.640911440348E+03   -0.99300E-05   -0.11928E-04 10593   0.197E-02    0.517E-03
RMM:  20    -0.640911445854E+03   -0.55058E-05   -0.64477E-05  9627   0.171E-02
  10 F= -.64091145E+03 E0= -.64085581E+03  d E =-.204344E+00
 trial-energy change:   -0.204344  1 .order   -0.187981   -0.505191    0.129229
 step:   0.8082(harm=  0.7856)  dis= 0.04635  next Energy=  -640.923030 (dE=-0.216E+00)
 bond charge predicted
       N       E                     dE             d eps       ncg     rms          rms(c)
DAV:   1    -0.640836605713E+03    0.74835E-01   -0.49864E+00 10416   0.958E+00    0.961E-01
RMM:   2    -0.640962970811E+03   -0.12637E+00   -0.11684E+00 13336   0.282E+00    0.173E+00
RMM:   3    -0.640928692512E+03    0.34278E-01   -0.11603E-01 13126   0.108E+00    0.690E-01
RMM:   4    -0.640927651108E+03    0.10414E-02   -0.23086E-02 14829   0.337E-01    0.664E-01
RMM:   5    -0.640924528873E+03    0.31222E-02   -0.58934E-03 13897   0.193E-01    0.350E-01
RMM:   6    -0.640923972626E+03    0.55625E-03   -0.38823E-03 13812   0.144E-01    0.321E-01
RMM:   7    -0.640923702358E+03    0.27027E-03   -0.29167E-03 14035   0.129E-01    0.281E-01
RMM:   8    -0.640923186279E+03    0.51608E-03   -0.16009E-03 14003   0.880E-02    0.179E-01
RMM:   9    -0.640922987758E+03    0.19852E-03   -0.62977E-04 13273   0.574E-02    0.731E-02
RMM:  10    -0.640922975853E+03    0.11905E-04   -0.29714E-04 12533   0.340E-02    0.447E-02
RMM:  11    -0.640922977233E+03   -0.13795E-05   -0.16114E-04 11595   0.249E-02    0.348E-02
RMM:  12    -0.640922977919E+03   -0.68662E-06   -0.82201E-05 10438   0.184E-02
  11 F= -.64092298E+03 E0= -.64086558E+03  d E =-.215876E+00
 curvature:  -0.63 expect dE=-0.937E-01 dE for cont linesearch -0.203E-05
 trial: gam= 0.21403 g(F)=  0.134E+00 g(S)=  0.141E-01 ort = 0.164E-02 (trialstep = 0.951E+00)
 search vector abs. value=  0.187E+00
 bond charge predicted
       N       E                     dE             d eps       ncg     rms          rms(c)
DAV:   1    -0.640597208893E+03    0.32577E+00   -0.28205E+01  9840   0.214E+01    0.174E+00
RMM:   2    -0.641121456529E+03   -0.52425E+00   -0.48439E+00 13978   0.587E+00    0.328E+00
RMM:   3    -0.641026019081E+03    0.95437E-01   -0.44584E-01 13884   0.216E+00    0.140E+00
RMM:   4    -0.641029431186E+03   -0.34121E-02   -0.10695E-01 15174   0.835E-01    0.149E+00
RMM:   5    -0.641012197421E+03    0.17234E-01   -0.33105E-02 14435   0.379E-01    0.511E-01
RMM:   6    -0.641013092503E+03   -0.89508E-03   -0.20702E-02 14240   0.309E-01    0.645E-01
RMM:   7    -0.641010715832E+03    0.23767E-02   -0.13156E-02 14486   0.256E-01    0.405E-01
RMM:   8    -0.641009353796E+03    0.13620E-02   -0.64579E-03 14735   0.164E-01    0.137E-01
RMM:   9    -0.641009726198E+03   -0.37240E-03   -0.29477E-03 14387   0.108E-01    0.216E-01
RMM:  10    -0.641009499903E+03    0.22629E-03   -0.17114E-03 14002   0.703E-02    0.673E-02
RMM:  11    -0.641009568364E+03   -0.68461E-04   -0.91507E-04 12975   0.566E-02    0.684E-02
RMM:  12    -0.641009589256E+03   -0.20891E-04   -0.54984E-04 12517   0.383E-02    0.429E-02
RMM:  13    -0.641009612230E+03   -0.22975E-04   -0.33072E-04 11782   0.337E-02    0.281E-02
RMM:  14    -0.641009637145E+03   -0.24914E-04   -0.23592E-04 11688   0.280E-02    0.386E-02
RMM:  15    -0.641009633843E+03    0.33014E-05   -0.14639E-04 11085   0.256E-02    0.845E-03
RMM:  16    -0.641009640237E+03   -0.63940E-05   -0.91100E-05 10506   0.193E-02
  12 F= -.64100964E+03 E0= -.64095380E+03  d E =-.866623E-01
 trial-energy change:   -0.086662  1 .order   -0.086543   -0.141286   -0.031800
 step:   1.2271(harm=  1.2271)  dis= 0.02302  next Energy=  -641.014139 (dE=-0.912E-01)
 bond charge predicted
       N       E                     dE             d eps       ncg     rms          rms(c)
DAV:   1    -0.640979881292E+03    0.29753E-01   -0.23828E+00 10488   0.620E+00    0.502E-01
RMM:   2    -0.641024192599E+03   -0.44311E-01   -0.40782E-01 14016   0.170E+00    0.988E-01
RMM:   3    -0.641015902092E+03    0.82905E-02   -0.37645E-02 13851   0.617E-01    0.431E-01
RMM:   4    -0.641015927096E+03   -0.25005E-04   -0.87605E-03 15041   0.242E-01    0.420E-01
RMM:   5    -0.641014530013E+03    0.13971E-02   -0.30332E-03 14169   0.114E-01    0.150E-01
RMM:   6    -0.641014636410E+03   -0.10640E-03   -0.18909E-03 14020   0.930E-02    0.195E-01
RMM:   7    -0.641014424812E+03    0.21160E-03   -0.12079E-03 14104   0.771E-02    0.119E-01
RMM:   8    -0.641014315974E+03    0.10884E-03   -0.58964E-04 13815   0.493E-02    0.506E-02
RMM:   9    -0.641014340384E+03   -0.24410E-04   -0.28442E-04 12052   0.345E-02    0.622E-02
RMM:  10    -0.641014319765E+03    0.20619E-04   -0.15860E-04 11413   0.247E-02    0.185E-02
RMM:  11    -0.641014324870E+03   -0.51054E-05   -0.86635E-05 10715   0.201E-02
  13 F= -.64101432E+03 E0= -.64095894E+03  d E =-.913470E-01
 curvature:  -0.77 expect dE=-0.345E-01 dE for cont linesearch -0.385E-06
 trial: gam= 0.26010 g(F)=  0.436E-01 g(S)=  0.100E-02 ort =-0.306E-03 (trialstep = 0.101E+01)
 search vector abs. value=  0.571E-01
 bond charge predicted
       N       E                     dE             d eps       ncg     rms          rms(c)
DAV:   1    -0.640900426483E+03    0.11389E+00   -0.99456E+00  9744   0.124E+01    0.745E-01
RMM:   2    -0.641049229351E+03   -0.14880E+00   -0.15224E+00 13965   0.328E+00    0.107E+00
RMM:   3    -0.641047794285E+03    0.14351E-02   -0.13461E-01 13781   0.115E+00    0.862E-01
RMM:   4    -0.641043967770E+03    0.38265E-02   -0.27153E-02 14893   0.484E-01    0.428E-01
RMM:   5    -0.641043426596E+03    0.54117E-03   -0.10280E-02 14406   0.178E-01    0.293E-01
RMM:   6    -0.641043344278E+03    0.82317E-04   -0.51453E-03 14243   0.151E-01    0.288E-01
RMM:   7    -0.641043190325E+03    0.15395E-03   -0.35527E-03 14309   0.113E-01    0.248E-01
RMM:   8    -0.641042737616E+03    0.45271E-03   -0.17583E-03 14052   0.922E-02    0.873E-02
RMM:   9    -0.641042807662E+03   -0.70045E-04   -0.92386E-04 12953   0.557E-02    0.909E-02
RMM:  10    -0.641042770192E+03    0.37470E-04   -0.50497E-04 12686   0.425E-02    0.321E-02
RMM:  11    -0.641042787369E+03   -0.17177E-04   -0.25521E-04 11650   0.298E-02    0.333E-02
RMM:  12    -0.641042792200E+03   -0.48315E-05   -0.16879E-04 11382   0.244E-02    0.145E-02
RMM:  13    -0.641042796500E+03   -0.42999E-05   -0.90399E-05 10452   0.191E-02
  14 F= -.64104280E+03 E0= -.64098734E+03  d E =-.284716E-01
 trial-energy change:   -0.028472  1 .order   -0.028227   -0.044781   -0.011674
 step:   1.3412(harm=  1.3609)  dis= 0.01966  next Energy=  -641.044749 (dE=-0.304E-01)
 bond charge predicted
       N       E                     dE             d eps       ncg     rms          rms(c)
DAV:   1    -0.641029158942E+03    0.13633E-01   -0.11033E+00 10416   0.414E+00    0.247E-01
RMM:   2    -0.641045671496E+03   -0.16513E-01   -0.16911E-01 13974   0.109E+00    0.354E-01
RMM:   3    -0.641045537637E+03    0.13386E-03   -0.15316E-02 13777   0.381E-01    0.287E-01
RMM:   4    -0.641045111893E+03    0.42574E-03   -0.30028E-03 14590   0.162E-01    0.144E-01
RMM:   5    -0.641045052421E+03    0.59473E-04   -0.12448E-03 12945   0.628E-02    0.956E-02
RMM:   6    -0.641045052794E+03   -0.37390E-06   -0.64874E-04 13230   0.539E-02    0.960E-02
RMM:   7    -0.641045037580E+03    0.15215E-04   -0.43793E-04 12796   0.399E-02    0.814E-02
RMM:   8    -0.641044991918E+03    0.45662E-04   -0.22532E-04 12531   0.341E-02    0.309E-02
WARNING in EDDRMM: call to ZHEGV failed, returncode =   8  4     12
RMM:   9    -0.641044999186E+03   -0.72685E-05   -0.12095E-04 11050   0.226E-02    0.299E-02
RMM:  10    -0.641044995730E+03    0.34563E-05   -0.70922E-05 10229   0.191E-02
  15 F= -.64104500E+03 E0= -.64098951E+03  d E =-.306709E-01
 curvature:  -0.87 expect dE=-0.132E-01 dE for cont linesearch -0.164E-04
 trial: gam= 0.31111 g(F)=  0.127E-01 g(S)=  0.250E-02 ort = 0.104E-02 (trialstep = 0.107E+01)
 search vector abs. value=  0.213E-01
 bond charge predicted
       N       E                     dE             d eps       ncg     rms          rms(c)
DAV:   1    -0.640992093118E+03    0.52906E-01   -0.45148E+00  9792   0.863E+00    0.987E-01
RMM:   2    -0.641103913265E+03   -0.11182E+00   -0.91514E-01 13548   0.253E+00    0.208E+00
RMM:   3    -0.641059434919E+03    0.44478E-01   -0.10123E-01 13400   0.969E-01    0.626E-01
RMM:   4    -0.641059404475E+03    0.30444E-04   -0.23284E-02 14790   0.344E-01    0.685E-01
RMM:   5    -0.641055576891E+03    0.38276E-02   -0.68390E-03 14122   0.188E-01    0.317E-01
RMM:   6    -0.641055481775E+03    0.95115E-04   -0.42948E-03 14185   0.148E-01    0.358E-01
RMM:   7    -0.641054768276E+03    0.71350E-03   -0.29846E-03 14279   0.133E-01    0.210E-01
RMM:   8    -0.641054533137E+03    0.23514E-03   -0.15452E-03 14222   0.844E-02    0.151E-01
WARNING in EDDRMM: call to ZHEGV failed, returncode =   8  4      7
RMM:   9    -0.641054419775E+03    0.11336E-03   -0.64269E-04 13390   0.540E-02    0.702E-02
RMM:  10    -0.641054419884E+03   -0.10851E-06   -0.32974E-04 12498   0.336E-02    0.341E-02
RMM:  11    -0.641054440585E+03   -0.20701E-04   -0.18431E-04 11668   0.256E-02    0.361E-02
RMM:  12    -0.641054448580E+03   -0.79952E-05   -0.10068E-04 10659   0.198E-02    0.220E-02
RMM:  13    -0.641054467560E+03   -0.18980E-04   -0.74368E-05 10363   0.181E-02    0.145E-02
WARNING in EDDRMM: call to ZHEGV failed, returncode =   8  4      7
RMM:  14    -0.641054479914E+03   -0.12354E-04   -0.57341E-05  9963   0.176E-02    0.193E-02
RMM:  15    -0.641054483409E+03   -0.34952E-05   -0.37392E-05  8983   0.149E-02
  16 F= -.64105448E+03 E0= -.64099913E+03  d E =-.948768E-02
 trial-energy change:   -0.009488  1 .order   -0.009507   -0.016614   -0.002399
 step:   1.2543(harm=  1.2543)  dis= 0.01222  next Energy=  -641.054705 (dE=-0.971E-02)
 bond charge predicted
       N       E                     dE             d eps       ncg     rms          rms(c)
DAV:   1    -0.641052852579E+03    0.16273E-02   -0.12851E-01 10416   0.146E+00    0.166E-01
RMM:   2    -0.641056035564E+03   -0.31830E-02   -0.25936E-02 13623   0.427E-01    0.347E-01
RMM:   3    -0.641054785241E+03    0.12503E-02   -0.28990E-03 13399   0.161E-01    0.103E-01
RMM:   4    -0.641054785616E+03   -0.37480E-06   -0.65337E-04 13714   0.577E-02    0.113E-01
RMM:   5    -0.641054684178E+03    0.10144E-03   -0.21274E-04 11693   0.355E-02    0.508E-02
RMM:   6    -0.641054685200E+03   -0.10223E-05   -0.13435E-04 11810   0.271E-02    0.592E-02
RMM:   7    -0.641054667898E+03    0.17302E-04   -0.89587E-05 11389   0.251E-02    0.346E-02
RMM:   8    -0.641054664078E+03    0.38200E-05   -0.56225E-05 10183   0.175E-02
  17 F= -.64105466E+03 E0= -.64099934E+03  d E =-.966835E-02
 curvature:  -0.86 expect dE=-0.904E-02 dE for cont linesearch -0.165E-09
 trial: gam= 0.70651 g(F)=  0.404E-02 g(S)=  0.643E-02 ort =-0.202E-05 (trialstep = 0.111E+01)
 search vector abs. value=  0.211E-01
 bond charge predicted
       N       E                     dE             d eps       ncg     rms          rms(c)
DAV:   1    -0.641001155804E+03    0.53512E-01   -0.49769E+00  9768   0.921E+00    0.145E+00
RMM:   2    -0.641169975824E+03   -0.16882E+00   -0.11815E+00 12085   0.296E+00    0.300E+00
RMM:   3    -0.641067185343E+03    0.10279E+00   -0.15681E-01 12451   0.129E+00    0.787E-01
RMM:   4    -0.641066592583E+03    0.59276E-03   -0.35153E-02 14331   0.418E-01    0.887E-01
RMM:   5    -0.641060700926E+03    0.58917E-02   -0.98021E-03 14027   0.252E-01    0.458E-01
RMM:   6    -0.641059500784E+03    0.12001E-02   -0.61242E-03 14063   0.177E-01    0.394E-01
RMM:   7    -0.641058936201E+03    0.56458E-03   -0.41809E-03 14058   0.167E-01    0.315E-01
RMM:   8    -0.641058117615E+03    0.81859E-03   -0.21682E-03 14045   0.103E-01    0.947E-02
RMM:   9    -0.641058153857E+03   -0.36242E-04   -0.75823E-04 13725   0.635E-02    0.118E-01
RMM:  10    -0.641058079132E+03    0.74724E-04   -0.38134E-04 12832   0.355E-02    0.432E-02
RMM:  11    -0.641058086867E+03   -0.77343E-05   -0.19863E-04 11659   0.268E-02    0.327E-02
RMM:  12    -0.641058101154E+03   -0.14287E-04   -0.10996E-04 10623   0.212E-02    0.342E-02
WARNING in EDDRMM: call to ZHEGV failed, returncode =   8  4      9
RMM:  13    -0.641058106885E+03   -0.57314E-05   -0.10475E-04 11021   0.205E-02    0.179E-02
WARNING in EDDRMM: call to ZHEGV failed, returncode =   8  4     11
RMM:  14    -0.641058108510E+03   -0.16253E-05   -0.90270E-05 10656   0.191E-02
  18 F= -.64105811E+03 E0= -.64100265E+03  d E =-.344443E-02
 trial-energy change:   -0.003444  1 .order   -0.003362   -0.011610    0.004887
 step:   0.7876(harm=  0.7808)  dis= 0.00948  next Energy=  -641.058815 (dE=-0.415E-02)
 bond charge predicted
       N       E                     dE             d eps       ncg     rms          rms(c)
DAV:   1    -0.641054069944E+03    0.40369E-02   -0.41928E-01 10416   0.268E+00    0.421E-01
RMM:   2    -0.641068480168E+03   -0.14410E-01   -0.10144E-01 11970   0.867E-01    0.894E-01
RMM:   3    -0.641059650884E+03    0.88293E-02   -0.13566E-02 12337   0.380E-01    0.240E-01
RMM:   4    -0.641059577826E+03    0.73058E-04   -0.29856E-03 14128   0.122E-01    0.267E-01
RMM:   5    -0.641059045794E+03    0.53203E-03   -0.83480E-04 13112   0.743E-02    0.138E-01
RMM:   6    -0.641058938049E+03    0.10775E-03   -0.51948E-04 13641   0.530E-02    0.121E-01
RMM:   7    -0.641058870932E+03    0.67117E-04   -0.37474E-04 12948   0.511E-02    0.883E-02
RMM:   8    -0.641058806782E+03    0.64149E-04   -0.17924E-04 12698   0.321E-02    0.233E-02
RMM:   9    -0.641058811580E+03   -0.47979E-05   -0.54688E-05 10235   0.198E-02
  19 F= -.64105881E+03 E0= -.64100340E+03  d E =-.414750E-02
 curvature:  -0.79 expect dE=-0.344E-02 dE for cont linesearch -0.448E-06
 trial: gam= 0.41908 g(F)=  0.290E-02 g(S)=  0.147E-02 ort =-0.110E-03 (trialstep = 0.105E+01)
 search vector abs. value=  0.798E-02
 bond charge predicted
       N       E                     dE             d eps       ncg     rms          rms(c)
DAV:   1    -0.641031060648E+03    0.27746E-01   -0.17203E+00  9744   0.545E+00    0.428E-01
RMM:   2    -0.641065365885E+03   -0.34305E-01   -0.34813E-01 13786   0.149E+00    0.617E-01
RMM:   3    -0.641062700859E+03    0.26650E-02   -0.31316E-02 13771   0.484E-01    0.366E-01
RMM:   4    -0.641062188031E+03    0.51283E-03   -0.53135E-03 14737   0.183E-01    0.284E-01
RMM:   5    -0.641061573266E+03    0.61476E-03   -0.15087E-03 13380   0.834E-02    0.137E-01
RMM:   6    -0.641061585110E+03   -0.11843E-04   -0.91506E-04 13759   0.676E-02    0.161E-01
RMM:   7    -0.641061456362E+03    0.12875E-03   -0.67334E-04 13471   0.571E-02    0.107E-01
RMM:   8    -0.641061368612E+03    0.87750E-04   -0.32098E-04 13004   0.399E-02    0.539E-02
RMM:   9    -0.641061364021E+03    0.45917E-05   -0.14193E-04 11521   0.252E-02    0.356E-02
RMM:  10    -0.641061362926E+03    0.10945E-05   -0.76925E-05 10489   0.193E-02
  20 F= -.64106136E+03 E0= -.64100600E+03  d E =-.255135E-02
 trial-energy change:   -0.002551  1 .order   -0.002586   -0.004515   -0.000657
 step:   1.2231(harm=  1.2231)  dis= 0.01112  next Energy=  -641.061454 (dE=-0.264E-02)
 bond charge predicted
       N       E                     dE             d eps       ncg     rms          rms(c)
DAV:   1    -0.641060525620E+03    0.83840E-03   -0.50030E-02 10632   0.930E-01    0.740E-02
RMM:   2    -0.641061588760E+03   -0.10631E-02   -0.10252E-02 13854   0.252E-01    0.132E-01
RMM:   3    -0.641061451943E+03    0.13682E-03   -0.95700E-04 13026   0.843E-02    0.592E-02
RMM:   4    -0.641061445377E+03    0.65656E-05   -0.17746E-04 12211   0.338E-02    0.496E-02
WARNING in EDDRMM: call to ZHEGV failed, returncode =   8  4      7
RMM:   5    -0.641061429177E+03    0.16200E-04   -0.66372E-05 10137   0.195E-02    0.241E-02
RMM:   6    -0.641061435113E+03   -0.59360E-05   -0.44043E-05  9840   0.164E-02
  21 F= -.64106144E+03 E0= -.64100613E+03  d E =-.262353E-02
 curvature:  -1.13 expect dE=-0.192E-02 dE for cont linesearch -0.645E-06
 trial: gam= 0.32780 g(F)=  0.149E-02 g(S)=  0.206E-03 ort = 0.675E-04 (trialstep = 0.108E+01)
 search vector abs. value=  0.260E-02
 bond charge predicted
       N       E                     dE             d eps       ncg     rms          rms(c)
DAV:   1    -0.641052065786E+03    0.93634E-02   -0.62066E-01  9888   0.319E+00    0.199E-01
RMM:   2    -0.641063470584E+03   -0.11405E-01   -0.11462E-01 13567   0.833E-01    0.322E-01
RMM:   3    -0.641063076912E+03    0.39367E-03   -0.10592E-02 13435   0.259E-01    0.201E-01
RMM:   4    -0.641062799288E+03    0.27762E-03   -0.11621E-03 13829   0.964E-02    0.889E-02
WARNING in EDDRMM: call to ZHEGV failed, returncode =   6  3      7
RMM:   5    -0.641062783881E+03    0.15407E-04   -0.40840E-04 11998   0.414E-02    0.754E-02
RMM:   6    -0.641062758670E+03    0.25211E-04   -0.25203E-04 12214   0.336E-02    0.585E-02
RMM:   7    -0.641062745036E+03    0.13633E-04   -0.14606E-04 11404   0.253E-02    0.467E-02
RMM:   8    -0.641062729767E+03    0.15269E-04   -0.66560E-05 10357   0.193E-02    0.189E-02
RMM:   9    -0.641062731955E+03   -0.21875E-05   -0.35766E-05  8566   0.147E-02
  22 F= -.64106273E+03 E0= -.64100720E+03  d E =-.129684E-02
 trial-energy change:   -0.001297  1 .order   -0.001252   -0.001860   -0.000644
 step:   1.5166(harm=  1.6526)  dis= 0.00865  next Energy=  -641.062865 (dE=-0.143E-02)
 bond charge predicted
       N       E                     dE             d eps       ncg     rms          rms(c)
DAV:   1    -0.641061143255E+03    0.15865E-02   -0.10109E-01 10416   0.129E+00    0.809E-02
RMM:   2    -0.641062992702E+03   -0.18494E-02   -0.18772E-02 13663   0.338E-01    0.122E-01
RMM:   3    -0.641062952827E+03    0.39875E-04   -0.17482E-03 13091   0.105E-01    0.854E-02
RMM:   4    -0.641062908497E+03    0.44330E-04   -0.21605E-04 12425   0.414E-02    0.421E-02
RMM:   5    -0.641062900717E+03    0.77793E-05   -0.75611E-05  9673   0.209E-02
  23 F= -.64106290E+03 E0= -.64100731E+03  d E =-.146560E-02
 curvature:  -1.18 expect dE=-0.792E-03 dE for cont linesearch -0.253E-05
 trial: gam= 0.33101 g(F)=  0.627E-03 g(S)=  0.460E-04 ort = 0.748E-04 (trialstep = 0.117E+01)
 search vector abs. value=  0.101E-02
 bond charge predicted
       N       E                     dE             d eps       ncg     rms          rms(c)
DAV:   1    -0.641058724223E+03    0.41843E-02   -0.27693E-01  9888   0.213E+00    0.176E-01
RMM:   2    -0.641064454579E+03   -0.57304E-02   -0.55501E-02 13626   0.573E-01    0.303E-01
RMM:   3    -0.641063667060E+03    0.78752E-03   -0.49712E-03 13644   0.191E-01    0.144E-01
RMM:   4    -0.641063600156E+03    0.66904E-04   -0.89306E-04 13983   0.717E-02    0.122E-01
RMM:   5    -0.641063487495E+03    0.11266E-03   -0.28195E-04 11895   0.381E-02    0.596E-02
RMM:   6    -0.641063486169E+03    0.13254E-05   -0.17326E-04 11935   0.297E-02    0.684E-02
RMM:   7    -0.641063461745E+03    0.24425E-04   -0.11675E-04 11482   0.261E-02    0.450E-02
RMM:   8    -0.641063446734E+03    0.15011E-04   -0.59942E-05 10778   0.189E-02    0.293E-02
RMM:   9    -0.641063442863E+03    0.38714E-05   -0.33034E-05  8204   0.151E-02
  24 F= -.64106344E+03 E0= -.64100773E+03  d E =-.542145E-03
 trial-energy change:   -0.000542  1 .order   -0.000527   -0.000814   -0.000240
 step:   1.6554(harm=  1.6554)  dis= 0.00604  next Energy=  -641.063478 (dE=-0.577E-03)
 bond charge predicted
       N       E                     dE             d eps       ncg     rms          rms(c)
DAV:   1    -0.641062659342E+03    0.78739E-03   -0.48348E-02 10416   0.888E-01    0.739E-02
RMM:   2    -0.641063657628E+03   -0.99829E-03   -0.97568E-03 13582   0.244E-01    0.120E-01
RMM:   3    -0.641063524638E+03    0.13299E-03   -0.92098E-04 13009   0.809E-02    0.559E-02
RMM:   4    -0.641063517922E+03    0.67164E-05   -0.15218E-04 11975   0.307E-02    0.528E-02
RMM:   5    -0.641063498120E+03    0.19802E-04   -0.54535E-05  9754   0.179E-02    0.234E-02
RMM:   6    -0.641063497888E+03    0.23194E-06   -0.31737E-05  8772   0.150E-02
  25 F= -.64106350E+03 E0= -.64100774E+03  d E =-.597171E-03
 curvature:  -1.20 expect dE=-0.574E-03 dE for cont linesearch -0.191E-06
 trial: gam= 0.74838 g(F)=  0.310E-03 g(S)=  0.170E-03 ort = 0.127E-04 (trialstep = 0.120E+01)
 search vector abs. value=  0.106E-02
 bond charge predicted
       N       E                     dE             d eps       ncg     rms          rms(c)
DAV:   1    -0.641058019159E+03    0.54790E-02   -0.32479E-01 10176   0.235E+00    0.245E-01
RMM:   2    -0.641067023750E+03   -0.90046E-02   -0.78883E-02 13199   0.660E-01    0.496E-01
RMM:   3    -0.641064087024E+03    0.29367E-02   -0.68181E-03 12405   0.239E-01    0.156E-01
RMM:   4    -0.641064048317E+03    0.38706E-04   -0.13170E-03 14095   0.801E-02    0.159E-01
RMM:   5    -0.641063837335E+03    0.21098E-03   -0.34692E-04 11936   0.466E-02    0.751E-02
RMM:   6    -0.641063823525E+03    0.13810E-04   -0.20428E-04 12425   0.332E-02    0.826E-02
RMM:   7    -0.641063793487E+03    0.30038E-04   -0.14940E-04 11498   0.320E-02    0.597E-02
RMM:   8    -0.641063766842E+03    0.26646E-04   -0.89199E-05 11309   0.230E-02    0.307E-02
RMM:   9    -0.641063764075E+03    0.27664E-05   -0.31528E-05  8231   0.181E-02
  26 F= -.64106376E+03 E0= -.64100811E+03  d E =-.266187E-03
 trial-energy change:   -0.000266  1 .order   -0.000283   -0.000587    0.000021
 step:   1.1565(harm=  1.1565)  dis= 0.00465  next Energy=  -641.063781 (dE=-0.283E-03)
 bond charge predicted
       N       E                     dE             d eps       ncg     rms          rms(c)
DAV:   1    -0.641063760247E+03    0.65949E-05   -0.43783E-04 12840   0.861E-02    0.140E-02
RMM:   2    -0.641063782575E+03   -0.22328E-04   -0.10773E-04  8296   0.265E-02    0.389E-02
RMM:   3    -0.641063770329E+03    0.12246E-04   -0.13943E-05  5963   0.150E-02    0.965E-03
RMM:   4    -0.641063771073E+03   -0.74346E-06   -0.43254E-06  5303   0.885E-03
  27 F= -.64106377E+03 E0= -.64100811E+03  d E =-.273185E-03
 curvature:  -1.26 expect dE=-0.488E-03 dE for cont linesearch -0.459E-07
 trial: gam= 0.81098 g(F)=  0.200E-03 g(S)=  0.188E-03 ort = 0.624E-05 (trialstep = 0.115E+01)
 search vector abs. value=  0.110E-02
 bond charge predicted
       N       E                     dE             d eps       ncg     rms          rms(c)
DAV:   1    -0.641057956492E+03    0.58138E-02   -0.32108E-01 10272   0.230E+00    0.211E-01
RMM:   2    -0.641066043499E+03   -0.80870E-02   -0.76442E-02 13170   0.628E-01    0.368E-01
RMM:   3    -0.641064184131E+03    0.18594E-02   -0.63339E-03 12546   0.211E-01    0.137E-01
RMM:   4    -0.641064091274E+03    0.92857E-04   -0.84753E-04 13932   0.673E-02    0.113E-01
RMM:   5    -0.641064000788E+03    0.90486E-04   -0.22741E-04 11328   0.386E-02    0.654E-02
RMM:   6    -0.641063974752E+03    0.26036E-04   -0.12892E-04 11430   0.272E-02    0.540E-02
RMM:   7    -0.641063985791E+03   -0.11040E-04   -0.10991E-04 10872   0.260E-02    0.692E-02
RMM:   8    -0.641063945600E+03    0.40192E-04   -0.66978E-05 10137   0.203E-02    0.174E-02
RMM:   9    -0.641063945167E+03    0.43281E-06   -0.20281E-05  6476   0.160E-02
  28 F= -.64106395E+03 E0= -.64100828E+03  d E =-.174094E-03
 trial-energy change:   -0.000174  1 .order   -0.000179   -0.000454    0.000096
 step:   0.9511(harm=  0.9511)  dis= 0.00406  next Energy=  -641.063958 (dE=-0.187E-03)
 bond charge predicted
       N       E                     dE             d eps       ncg     rms          rms(c)
DAV:   1    -0.641063769773E+03    0.17583E-03   -0.98722E-03 10704   0.402E-01    0.382E-02
RMM:   2    -0.641064021899E+03   -0.25213E-03   -0.23385E-03 12770   0.111E-01    0.709E-02
RMM:   3    -0.641063957410E+03    0.64490E-04   -0.20444E-04  9663   0.393E-02    0.273E-02
RMM:   4    -0.641063955358E+03    0.20519E-05   -0.27242E-05  6296   0.161E-02
  29 F= -.64106396E+03 E0= -.64100830E+03  d E =-.184285E-03
 curvature:  -1.33 expect dE=-0.668E-03 dE for cont linesearch -0.213E-06
 trial: gam= 1.51669 g(F)=  0.171E-03 g(S)=  0.332E-03 ort =-0.133E-04 (trialstep = 0.409E+00)
 search vector abs. value=  0.299E-02
 bond charge predicted
       N       E                     dE             d eps       ncg     rms          rms(c)
DAV:   1    -0.641061850138E+03    0.21073E-02   -0.11097E-01 10128   0.134E+00    0.108E-01
RMM:   2    -0.641064454707E+03   -0.26046E-02   -0.25791E-02 13199   0.361E-01    0.167E-01
RMM:   3    -0.641064079855E+03    0.37485E-03   -0.20480E-03 12362   0.111E-01    0.843E-02
RMM:   4    -0.641064049483E+03    0.30373E-04   -0.24081E-04 12509   0.374E-02    0.712E-02
RMM:   5    -0.641064009436E+03    0.40047E-04   -0.69151E-05  9485   0.237E-02    0.310E-02
RMM:   6    -0.641064006427E+03    0.30084E-05   -0.35878E-05  8031   0.161E-02
  30 F= -.64106401E+03 E0= -.64100842E+03  d E =-.510693E-04
 trial-energy change:   -0.000051  1 .order   -0.000101   -0.000197   -0.000005
 step:   0.4187(harm=  0.4187)  dis= 0.00304  next Energy=  -641.064057 (dE=-0.101E-03)
 bond charge predicted
       N       E                     dE             d eps       ncg     rms          rms(c)
DAV:   1    -0.641064002252E+03    0.71836E-05   -0.10807E-04 12600   0.446E-02    0.284E-02
RMM:   2    -0.641064140421E+03   -0.13817E-03   -0.18553E-04  9491   0.270E-02    0.127E-01
RMM:   3    -0.641063999492E+03    0.14093E-03   -0.57111E-05  7375   0.202E-02    0.147E-02
RMM:   4    -0.641063997222E+03    0.22702E-05   -0.65224E-06  5260   0.105E-02
  31 F= -.64106400E+03 E0= -.64100839E+03  d E =-.418636E-04
 curvature:  -1.29 expect dE=-0.264E-03 dE for cont linesearch -0.277E-06
 trial: gam= 0.05867 g(F)=  0.182E-03 g(S)=  0.213E-04 ort =-0.253E-04 (trialstep = 0.411E+00)
 search vector abs. value=  0.211E-03
 bond charge predicted
       N       E                     dE             d eps       ncg     rms          rms(c)
DAV:   1    -0.641063990664E+03    0.88275E-05   -0.59166E-03 10176   0.295E-01    0.295E-02
RMM:   2    -0.641064092217E+03   -0.10155E-03   -0.95797E-04 13523   0.831E-02    0.571E-02
RMM:   3    -0.641064067954E+03    0.24264E-04   -0.96079E-05 10782   0.335E-02    0.259E-02
RMM:   4    -0.641064065940E+03    0.20136E-05   -0.20862E-05  6681   0.148E-02
  32 F= -.64106407E+03 E0= -.64100847E+03  d E =-.687184E-04
 trial-energy change:   -0.000069  1 .order   -0.000066   -0.000083   -0.000050
 step:   1.0188(harm=  1.0188)  dis= 0.00066  next Energy=  -641.064100 (dE=-0.103E-03)
 reached required accuracy - stopping structural energy minimisation
