HECN                                    
           1
    11.240000    0.000000    0.000000
     0.000000   11.240000    0.000000
     0.000000    0.000000   11.240000
   Ti   Nb   Hf   N    C    Zr   V 
   7   6   6  13  19   7   6
Direct configuration=     1
   0.00000000  0.00000000  0.00000000
   0.25000000  0.00000000  0.25000000
   0.25000000  0.50000000  0.25000000
   0.50000000  0.50000000  0.00000000
   0.50000000  0.25000000  0.75000004
   0.00000000  0.50000000  0.50000000
   0.50000000  0.75000004  0.75000004
   0.00000000  0.25000000  0.25000000
   0.75000004  0.75000004  0.00000000
   0.00000000  0.25000000  0.75000004
   0.75000004  0.25000000  0.50000000
   0.00000000  0.75000004  0.75000004
   0.25000000  0.50000000  0.75000004
   0.25000000  0.25000000  0.00000000
   0.50000000  0.25000000  0.25000000
   0.75000004  0.00000000  0.25000000
   0.75000004  0.25000000  0.00000000
   0.25000000  0.75000004  0.00000000
   0.25000000  0.25000000  0.50000000
   0.25000000  0.25000000  0.25000000
   0.25000000  0.00000000  0.00000000
   0.00000000  0.25000000  0.00000000
   0.75000004  0.25000000  0.25000000
   0.75000004  0.00000000  0.00000000
   0.50000000  0.00000000  0.25000000
   0.00000000  0.50000000  0.25000000
   0.50000000  0.75000004  0.00000000
   0.00000000  0.00000000  0.75000004
   0.75000004  0.25000000  0.75000004
   0.75000004  0.00000000  0.50000000
   0.50000000  0.25000000  0.50000000
   0.50000000  0.00000000  0.75000004
   0.00000000  0.00000000  0.25000000
   0.50000000  0.25000000  0.00000000
   0.25000000  0.75000004  0.25000000
   0.25000000  0.50000000  0.00000000
   0.00000000  0.75000004  0.00000000
   0.75000004  0.75000004  0.25000000
   0.75000004  0.50000000  0.00000000
   0.50000000  0.50000000  0.25000000
   0.25000000  0.25000000  0.75000004
   0.25000000  0.00000000  0.50000000
   0.00000000  0.25000000  0.50000000
   0.25000000  0.75000004  0.75000004
   0.25000000  0.50000000  0.50000000
   0.00000000  0.75000004  0.50000000
   0.00000000  0.50000000  0.75000004
   0.75000004  0.75000004  0.75000004
   0.75000004  0.50000000  0.50000000
   0.50000000  0.75000004  0.50000000
   0.50000000  0.50000000  0.75000004
   0.50000000  0.00000000  0.00000000
   0.00000000  0.50000000  0.00000000
   0.50000000  0.75000004  0.25000000
   0.25000000  0.00000000  0.75000004
   0.50000000  0.00000000  0.50000000
   0.75000004  0.00000000  0.75000004
   0.25000000  0.75000004  0.50000000
   0.00000000  0.75000004  0.25000000
   0.75000004  0.50000000  0.25000000
   0.00000000  0.00000000  0.50000000
   0.50000000  0.50000000  0.50000000
   0.75000004  0.50000000  0.75000004
   0.75000004  0.75000004  0.50000000
HECN                                    
           1
     8.195984    0.004362   -0.000128
     0.004362    8.197388    0.001260
    -0.000128    0.001260    8.185542
   Ti   Nb   Hf   N    C    Zr   V 
   7   6   6  13  19   7   6
Direct configuration=     2
  -0.00020598 -0.00209716  0.00163121
   0.24710650 -0.00186404  0.25189162
   0.25105025  0.50182413  0.25032438
   0.50050695  0.49915033 -0.00027587
   0.49859495  0.25266864  0.75092932
  -0.00017812  0.50031652  0.50096169
   0.50028343  0.74742618  0.74814598
  -0.00065816  0.24798602  0.25351397
   0.75277608  0.74682643 -0.00009092
   0.00171033  0.25270051  0.74655311
   0.75328861  0.25319292  0.50042739
  -0.00056510  0.74751409  0.74939473
   0.25049994  0.50004108  0.74950274
   0.25092869  0.25187235 -0.00151984
   0.50018831  0.25303182  0.24918655
   0.75306716 -0.00205122  0.25099943
   0.74889443  0.25260824 -0.00043195
   0.24838565  0.74828390  0.00021592
   0.24825322  0.25042353  0.50140174
   0.25156452  0.24960378  0.24970015
   0.25183217  0.00039629 -0.00132632
   0.00012038  0.25107543  0.00017781
   0.74839183  0.24677283  0.24871475
   0.74827816  0.00191061  0.00049523
   0.50259495  0.00130674  0.24966740
   0.00045728  0.49771646  0.24851087
   0.49860076  0.75206890  0.00141603
  -0.00082032  0.00025299  0.75103089
   0.75065506  0.24705591  0.75137410
   0.74762190  0.00226092  0.49944722
   0.49900339  0.24744705  0.49738799
   0.50082544  0.00019638  0.75035125
  -0.00209810  0.00226397  0.24940412
   0.50017432  0.24798910  0.00219932
   0.25158910  0.75033518  0.24890897
   0.24876841  0.49953359 -0.00103768
   0.00020903  0.74923603 -0.00164577
   0.74864599  0.75242604  0.24817214
   0.75106557  0.49929093  0.00012239
   0.49985903  0.49878963  0.24977462
   0.24889735  0.24970567  0.75035996
   0.25188446  0.00118580  0.50099778
   0.00002426  0.25024363  0.49988509
   0.24906506  0.75024779  0.75104861
   0.24953478  0.49888079  0.50123159
   0.00090305  0.74964510  0.50175485
   0.00124828  0.49983557  0.75080663
   0.75107056  0.75202528  0.75179622
   0.75029862  0.49779718  0.49991757
   0.49894860  0.75173197  0.49909647
   0.49856975  0.49993212  0.75018596
   0.50004976  0.00101583 -0.00052602
  -0.00046963  0.50181408 -0.00040011
   0.50021824  0.74715392  0.25153716
   0.24886333 -0.00011041  0.74820838
   0.49866074 -0.00181527  0.50053686
   0.75118934 -0.00189776  0.74895367
   0.24969773  0.74959041  0.49982542
  -0.00042789  0.75166597  0.25040738
   0.74866160  0.50208682  0.25017205
   0.00138336 -0.00003316  0.49832860
   0.50039177  0.50184686  0.50034125
   0.74963780  0.50187058  0.74985371
   0.75043376  0.74779884  0.50007491
HECN                                    
           1
     9.016708    0.003186   -0.000093
     0.003186    9.017733    0.000920
    -0.000093    0.000920    9.009081
   Ti   Nb   Hf   N    C    Zr   V 
   7   6   6  13  19   7   6
Direct configuration=     3
  -0.00013024 -0.00132180  0.00102717
   0.24817601 -0.00117538  0.25119120
   0.25066227  0.50114999  0.25020438
   0.50031933  0.49946453 -0.00017378
   0.49911500  0.25168184  0.75058544
  -0.00011220  0.50019952  0.50060567
   0.50017814  0.74837767  0.74883226
  -0.00041522  0.24873065  0.25221289
   0.75174900  0.74800024 -0.00005746
   0.00107847  0.25170229  0.74782941
   0.75207327  0.25201319  0.50026932
  -0.00035664  0.74843299  0.74961870
   0.25031509  0.50002596  0.74968685
   0.25058568  0.25118025 -0.00095705
   0.50011928  0.25191097  0.24948788
   0.75193266 -0.00129224  0.25062928
   0.74930375  0.25164375 -0.00027188
   0.24898223  0.74891804  0.00013589
   0.24889918  0.25026669  0.50088281
   0.25098596  0.24975055  0.24981113
   0.25115480  0.00025007 -0.00083527
   0.00007608  0.25067788  0.00011204
   0.74898585  0.24796550  0.24919041
   0.74891521  0.00120396  0.00031200
   0.50163571  0.00082414  0.24979060
   0.00028776  0.49856068  0.24906205
   0.49911854  0.75130386  0.00089190
  -0.00051696  0.00015936  0.75064926
   0.75041228  0.24814453  0.75086521
   0.74850168  0.00142457  0.49965202
   0.49937140  0.24839051  0.49835489
   0.50052026  0.00012396  0.75022123
  -0.00132187  0.00142655  0.24962487
   0.50010945  0.24873267  0.00138496
   0.25100159  0.75021153  0.24931291
   0.24922371  0.49970572 -0.00065352
   0.00013160  0.74951843 -0.00103650
   0.74914715  0.75152880  0.24884901
   0.75067145  0.49955328  0.00007703
   0.49991092  0.49923705  0.24985800
   0.24930500  0.24981429  0.75022670
   0.25118789  0.00074785  0.50062843
   0.00001534  0.25015356  0.49992764
   0.24941080  0.75015608  0.75066042
   0.24970657  0.49929453  0.50077556
   0.00056906  0.74977660  0.50110513
   0.00078668  0.49989665  0.75050799
   0.75067511  0.75127688  0.75113133
   0.75018778  0.49861160  0.49994796
   0.49933771  0.75109143  0.49943109
   0.49909858  0.49995694  0.75011713
   0.50003156  0.00064026 -0.00033122
  -0.00029562  0.50114331 -0.00025187
   0.50013697  0.74820624  0.25096790
   0.24928361 -0.00006992  0.74887171
   0.49915558 -0.00114441  0.50033800
   0.75074922 -0.00119600  0.74934095
   0.24980942  0.74974178  0.49989003
  -0.00026935  0.75105003  0.25025666
   0.74915691  0.50131508  0.25010848
   0.00087186 -0.00002072  0.49894739
   0.50024727  0.50116419  0.50021501
   0.74977211  0.50117896  0.74990800
   0.75027295  0.74861270  0.50004705
HECN                                    
           1
     8.957203    0.003271   -0.000096
     0.003271    8.958256    0.000945
    -0.000096    0.000945    8.949372
   Ti   Nb   Hf   N    C    Zr   V 
   7   6   6  13  19   7   6
Direct configuration=     4
  -0.00013524 -0.00137290  0.00106696
   0.24810552 -0.00122078  0.25123734
   0.25068785  0.50119443  0.25021229
   0.50033169  0.49944382 -0.00018051
   0.49908074  0.25174687  0.75060809
  -0.00011655  0.50020724  0.50062912
   0.50018506  0.74831496  0.74878705
  -0.00043124  0.24868157  0.25229860
   0.75181667  0.74792289 -0.00005966
   0.00112013  0.25176808  0.74774533
   0.75215338  0.25209096  0.50027973
  -0.00037039  0.74837242  0.74960394
   0.25032727  0.50002696  0.74967472
   0.25060829  0.25122587 -0.00099412
   0.50012384  0.25198484  0.24946804
   0.75200742 -0.00134224  0.25065366
   0.74927679  0.25170731 -0.00028242
   0.24894290  0.74887624  0.00014116
   0.24885661  0.25027702  0.50091700
   0.25102408  0.24974088  0.24980382
   0.25119944  0.00025971 -0.00086761
   0.00007901  0.25070409  0.00011638
   0.74894669  0.24788689  0.24915908
   0.74887324  0.00125052  0.00032407
   0.50169893  0.00085596  0.24978248
   0.00029892  0.49850504  0.24902574
   0.49908442  0.75135428  0.00092643
  -0.00053695  0.00016553  0.75067440
   0.75042827  0.24807279  0.75089873
   0.74844371  0.00147968  0.49963853
   0.49934714  0.24832833  0.49829119
   0.50054038  0.00012874  0.75022979
  -0.00137301  0.00148173  0.24961033
   0.50011372  0.24868367  0.00143860
   0.25104031  0.75021969  0.24928630
   0.24919370  0.49969437 -0.00067883
   0.00013670  0.74949981 -0.00107664
   0.74911413  0.75158792  0.24880442
   0.75069742  0.49953600  0.00008002
   0.49990750  0.49920756  0.24985250
   0.24927813  0.24980712  0.75023548
   0.25123381  0.00077672  0.50065276
   0.00001593  0.25015950  0.49992484
   0.24938802  0.75016212  0.75068599
   0.24969525  0.49926726  0.50080560
   0.00059107  0.74976794  0.50114793
   0.00081710  0.49989263  0.75052766
   0.75070118  0.75132621  0.75117513
   0.75019508  0.49855793  0.49994596
   0.49931207  0.75113364  0.49940905
   0.49906373  0.49995530  0.75012167
   0.50003277  0.00066501 -0.00034405
  -0.00030708  0.50118752 -0.00026164
   0.50014232  0.74813689  0.25100539
   0.24925591 -0.00007259  0.74882801
   0.49912296 -0.00118863  0.50035110
   0.75077822 -0.00124225  0.74931544
   0.24980206  0.74973180  0.49988577
  -0.00027979  0.75109062  0.25026659
   0.74912428  0.50136594  0.25011267
   0.00090557 -0.00002154  0.49890663
   0.50025680  0.50120918  0.50022333
   0.74976327  0.50122454  0.74990442
   0.75028354  0.74855906  0.50004888
HECN                                    
           1
     8.933309    0.003305   -0.000097
     0.003305    8.934373    0.000955
    -0.000097    0.000955    8.925396
   Ti   Nb   Hf   N    C    Zr   V 
   7   6   6  13  19   7   6
Direct configuration=     5
  -0.00013726 -0.00139356  0.00108304
   0.24807702 -0.00123913  0.25125599
   0.25069819  0.50121239  0.25021549
   0.50033669  0.49943545 -0.00018323
   0.49906689  0.25177316  0.75061725
  -0.00011830  0.50021035  0.50063860
   0.50018787  0.74828961  0.74876877
  -0.00043771  0.24866173  0.25233324
   0.75184403  0.74789162 -0.00006056
   0.00113696  0.25179468  0.74771135
   0.75218576  0.25212240  0.50028394
  -0.00037594  0.74834794  0.74959797
   0.25033220  0.50002736  0.74966982
   0.25061743  0.25124430 -0.00100911
   0.50012569  0.25201470  0.24946001
   0.75203764 -0.00136246  0.25066351
   0.74926589  0.25173300 -0.00028668
   0.24892701  0.74885935  0.00014329
   0.24883940  0.25028120  0.50093082
   0.25103950  0.24973697  0.24980086
   0.25121749  0.00026361 -0.00088069
   0.00008019  0.25071468  0.00011813
   0.74893086  0.24785511  0.24914641
   0.74885627  0.00126935  0.00032895
   0.50172449  0.00086882  0.24977920
   0.00030343  0.49848255  0.24901106
   0.49907063  0.75137466  0.00094039
  -0.00054503  0.00016802  0.75068456
   0.75043473  0.24804379  0.75091228
   0.74842028  0.00150196  0.49963308
   0.49933733  0.24830319  0.49826544
   0.50054851  0.00013067  0.75023326
  -0.00139369  0.00150404  0.24960445
   0.50011544  0.24866386  0.00146028
   0.25105596  0.75022299  0.24927554
   0.24918158  0.49968978 -0.00068906
   0.00013876  0.74949229 -0.00109286
   0.74910079  0.75161182  0.24878640
   0.75070792  0.49952901  0.00008122
   0.49990611  0.49919564  0.24985028
   0.24926727  0.24980423  0.75023903
   0.25125236  0.00078839  0.50066260
   0.00001617  0.25016190  0.49992371
   0.24937881  0.75016456  0.75069633
   0.24969067  0.49925624  0.50081774
   0.00059997  0.74976443  0.50116523
   0.00082940  0.49989101  0.75053561
   0.75071172  0.75134615  0.75119284
   0.75019803  0.49853623  0.49994515
   0.49930171  0.75115070  0.49940014
   0.49904964  0.49995464  0.75012350
   0.50003325  0.00067502 -0.00034924
  -0.00031172  0.50120539 -0.00026558
   0.50014448  0.74810886  0.25102055
   0.24924471 -0.00007367  0.74881035
   0.49910978 -0.00120650  0.50035640
   0.75078994 -0.00126094  0.74930513
   0.24979908  0.74972777  0.49988405
  -0.00028401  0.75110703  0.25027060
   0.74911109  0.50138650  0.25011436
   0.00091919 -0.00002187  0.49889015
   0.50026066  0.50122737  0.50022669
   0.74975969  0.50124297  0.74990298
   0.75028782  0.74853738  0.50004962
HECN                                    
           1
     8.889010    0.010760   -0.007105
     0.010746    8.927612   -0.001356
    -0.007097   -0.001349    8.897719
   Ti   Nb   Hf   N    C    Zr   V 
   7   6   6  13  19   7   6
Direct configuration=     6
   0.00039689 -0.00412445  0.00519592
   0.24218417 -0.00365272  0.25255461
   0.25216723  0.50338819  0.25117815
   0.50197405  0.49988273 -0.00111438
   0.49811331  0.25752006  0.75066153
  -0.00181897  0.50159141  0.49963708
   0.50217062  0.74222468  0.74661791
  -0.00166063  0.24534080  0.25925213
   0.75418246  0.74259447  0.00037414
   0.00143687  0.25532969  0.74146265
   0.75684544  0.25924277  0.50144082
  -0.00333248  0.74508630  0.74704713
   0.25429624  0.49946837  0.74831130
   0.24959756  0.25081387  0.00067368
   0.49990807  0.25667965  0.25116541
   0.75760222 -0.00485796  0.25379383
   0.74988481  0.25550360 -0.00190744
   0.24907011  0.74987843  0.00201986
   0.24771099  0.25218208  0.49879658
   0.25060094  0.24918132  0.24973174
   0.24663326  0.00072690  0.00419742
   0.00048187  0.24594766  0.00048061
   0.74901064  0.24979641  0.25014721
   0.75383092  0.00182789  0.00180182
   0.50045779  0.00369716  0.24937974
  -0.00052933  0.49986759  0.25428884
   0.49944857  0.74698487 -0.00393883
  -0.00225552  0.00034373  0.75112145
   0.74773006  0.25160107  0.74980644
   0.75327552  0.00063937  0.49813072
   0.50053020  0.25277295  0.50045747
   0.50219934  0.00040070  0.75032405
   0.00278764 -0.00111980  0.25037220
   0.50038837  0.25313474 -0.00194616
   0.24437815  0.75082112  0.24762119
   0.25401943  0.49920830  0.00192761
  -0.00233301  0.75527798  0.00204677
   0.75641713  0.74593489  0.25235170
   0.74535949  0.50190973  0.00024634
   0.50149589  0.49762080  0.25132303
   0.25149067  0.25240958  0.75020563
   0.24509254  0.00284720  0.49427639
  -0.00216037  0.24959787  0.49964080
   0.25203433  0.74745827  0.75232679
   0.25032134  0.49747375  0.49836984
  -0.00739338  0.75035149  0.49746838
  -0.00333905  0.49986471  0.74392504
   0.74769633  0.74492139  0.74759959
   0.74932088  0.50167818  0.49990287
   0.50650562  0.74393839  0.50599361
   0.50341523  0.50004847  0.74838074
   0.49862292 -0.00002417 -0.00193028
  -0.00228313  0.50286092  0.00328520
   0.50132506  0.74280861  0.25204223
   0.24675330  0.00001762  0.74912950
   0.49870218 -0.00297680  0.50191934
   0.75293506 -0.00374333  0.74614894
   0.24741315  0.74765599  0.49779689
  -0.00162651  0.75511557  0.25161326
   0.74620978  0.50537860  0.25063326
   0.00277740  0.00053612  0.49380679
   0.50261463  0.50398561  0.50114301
   0.74708638  0.50425287  0.74943576
   0.75183002  0.74287641  0.49985485
HECN                                    
           1
     8.870357    0.013899   -0.010056
     0.013879    8.924765   -0.002329
    -0.010044   -0.002319    8.886065
   Ti   Nb   Hf   N    C    Zr   V 
   7   6   6  13  19   7   6
Direct configuration=     7
   0.00062526 -0.00527495  0.00693297
   0.23969181 -0.00466755  0.25310089
   0.25278844  0.50430462  0.25158549
   0.50266646  0.50007052 -0.00150709
   0.49770778  0.25994207  0.75068054
  -0.00253946  0.50217386  0.49921364
   0.50301108  0.73966808  0.74570944
  -0.00217466  0.24394260  0.26217373
   0.75517402  0.74036155  0.00055794
   0.00156046  0.25681851  0.73882383
   0.75881512  0.26224166  0.50193179
  -0.00458328  0.74371267  0.74596837
   0.25597343  0.49923127  0.74773876
   0.24916670  0.25063304  0.00138407
   0.49981490  0.25864565  0.25188617
   0.75995924 -0.00633255  0.25511747
   0.75014485  0.25709208 -0.00259140
   0.24913093  0.75030801  0.00281264
   0.24723210  0.25298325  0.49789495
   0.25041552  0.24894732  0.24970233
   0.24469490  0.00092429  0.00634082
   0.00065365  0.24393880  0.00063332
   0.74904405  0.25061452  0.25057017
   0.75593631  0.00206165  0.00242565
   0.49992063  0.00488938  0.24921090
  -0.00088045  0.50045209  0.25651792
   0.49960842  0.74513441 -0.00600004
  -0.00297926  0.00041842  0.75130544
   0.74658391  0.25310089  0.74933885
   0.75532990  0.00027400  0.49749768
   0.50103413  0.25465625  0.50138421
   0.50289785  0.00051391  0.75036298
   0.00455822 -0.00222684  0.25069758
   0.50050116  0.25501824 -0.00338438
   0.24155156  0.75107535  0.24692026
   0.25606768  0.49900399  0.00303438
  -0.00337997  0.75771720  0.00337268
   0.75951633  0.74354052  0.25385942
   0.74309543  0.50291484  0.00031455
   0.50216967  0.49695678  0.25194544
   0.25243060  0.25350665  0.75019254
   0.24248306  0.00371624  0.49157717
  -0.00308131  0.24936094  0.49952052
   0.25315956  0.74631711  0.75301605
   0.25058804  0.49672215  0.49733591
  -0.01077733  0.75060129  0.49590432
  -0.00510519  0.49985439  0.74113150
   0.74642140  0.74221477  0.74608018
   0.74894858  0.50300246  0.49988507
   0.50955880  0.74089739  0.50878015
   0.50526199  0.50008627  0.74764611
   0.49802584 -0.00031847 -0.00259862
  -0.00311676  0.50355963  0.00478449
   0.50182685  0.74057486  0.25247358
   0.24569910  0.00005700  0.74926348
   0.49853085 -0.00372247  0.50257916
   0.75384262 -0.00479047  0.74481629
   0.24640354  0.74678360  0.49691430
  -0.00219558  0.75680533  0.25218035
   0.74498081  0.50706190  0.25085190
   0.00356184  0.00077004  0.49166037
   0.50361008  0.50514715  0.50153112
   0.74595392  0.50552210  0.74923786
   0.75248455  0.74049040  0.49977248
HECN                                    
           1
     8.943502    0.000620   -0.003657
     0.000476    9.020891   -0.006239
    -0.003643   -0.006217    8.943182
   Ti   Nb   Hf   N    C    Zr   V 
   7   6   6  13  19   7   6
Direct configuration=     8
  -0.00041281 -0.00540011  0.01059292
   0.23937021 -0.00566287  0.25400588
   0.25356813  0.50524944  0.25164260
   0.50191263  0.50161239 -0.00205276
   0.49702420  0.26351050  0.74895676
  -0.00358424  0.50325569  0.49611400
   0.50385768  0.73621268  0.74574420
  -0.00332080  0.24207508  0.26343785
   0.75330121  0.74091407  0.00101992
   0.00090990  0.26095138  0.73668345
   0.75599327  0.26851501  0.50253655
  -0.00514043  0.73959880  0.74386685
   0.25696988  0.50050993  0.74815163
   0.24633781  0.25292457  0.00233521
   0.50159232  0.25579325  0.25311221
   0.75866416 -0.00846898  0.25563889
   0.75150290  0.25768831 -0.00369714
   0.24825950  0.74807947  0.00086130
   0.24764806  0.25317626  0.49720944
   0.24960550  0.24960646  0.24979852
   0.24266836  0.00074566  0.00803515
   0.00029168  0.24221710  0.00098625
   0.75033684  0.25145709  0.25185989
   0.75776448  0.00255072  0.00262547
   0.50063225  0.00485891  0.24904454
  -0.00166070  0.50034791  0.25864145
   0.50051199  0.74366569 -0.00663686
  -0.00322994  0.00082159  0.75158451
   0.74564668  0.25423009  0.74798879
   0.75756658  0.00093394  0.49757272
   0.50267365  0.25586156  0.50311389
   0.50343232  0.00081287  0.75030802
   0.00552400 -0.00456964  0.25168857
   0.50087644  0.25522421 -0.00444997
   0.23994524  0.74987460  0.24835985
   0.25595391  0.49959540  0.00459256
  -0.00334158  0.75791083  0.00434301
   0.76090249  0.73960952  0.25557855
   0.74283426  0.50298034  0.00095473
   0.50330210  0.49907766  0.25308502
   0.25396504  0.25371333  0.75000190
   0.23990877  0.00238614  0.49081580
  -0.00096047  0.24973696  0.50016871
   0.25357961  0.74557482  0.75185488
   0.25098371  0.49846281  0.49550182
  -0.01324695  0.75141951  0.49423404
  -0.00662423  0.50019385  0.74082536
   0.74581040  0.73924023  0.74483695
   0.74889731  0.50592858  0.49935625
   0.51051326  0.73839313  0.50854920
   0.50763553  0.49987341  0.74629333
   0.50056740 -0.00016288 -0.00049296
  -0.00118879  0.50297349  0.00615466
   0.50412953  0.74342824  0.25358590
   0.24347271 -0.00084326  0.74705345
   0.49751224 -0.00535577  0.50036365
   0.75529108 -0.00735993  0.74431647
   0.24478419  0.74643211  0.49874903
  -0.00264153  0.76108145  0.25407489
   0.74251763  0.51004021  0.25117060
   0.00556877  0.00070031  0.48681872
   0.50625948  0.50605284  0.50260379
   0.74327714  0.50779625  0.74884603
   0.75329873  0.73194749  0.49908376
HECN                                    
           1
     8.927520    0.003521   -0.005055
     0.003405    8.999887   -0.005385
    -0.005042   -0.005365    8.930701
   Ti   Nb   Hf   N    C    Zr   V 
   7   6   6  13  19   7   6
Direct configuration=     9
  -0.00018723 -0.00537306  0.00979815
   0.23944038 -0.00544768  0.25380944
   0.25339886  0.50504494  0.25163023
   0.50207540  0.50127936 -0.00193455
   0.49717090  0.26273947  0.74933056
  -0.00335865  0.50302245  0.49678670
   0.50367534  0.73695938  0.74573711
  -0.00307160  0.24247905  0.26316339
   0.75370697  0.74079519  0.00091928
   0.00104920  0.26005836  0.73714766
   0.75660286  0.26715971  0.50240422
  -0.00501867  0.74048850  0.74432341
   0.25675358  0.50023315  0.74806203
   0.24695028  0.25243001  0.00212805
   0.50120825  0.25640919  0.25284657
   0.75894561 -0.00800676  0.25552569
   0.75120822  0.25755908 -0.00345691
   0.24844878  0.74856169  0.00128502
   0.24755774  0.25313446  0.49735832
   0.24978084  0.24946422  0.24977745
   0.24310787  0.00078477  0.00766699
   0.00037074  0.24258938  0.00090973
   0.75005659  0.25127441  0.25158000
   0.75736815  0.00244439  0.00258233
   0.50047802  0.00486529  0.24908077
  -0.00149124  0.50037048  0.25818030
   0.50031655  0.74398296 -0.00649832
  -0.00317570  0.00073449  0.75152384
   0.74584921  0.25398641  0.74828164
   0.75708165  0.00079055  0.49755672
   0.50231821  0.25560031  0.50273851
   0.50331638  0.00074807  0.75032001
   0.00531562 -0.00406358  0.25147379
   0.50079487  0.25517966 -0.00421858
   0.24029398  0.75013456  0.24804716
   0.25597862  0.49946744  0.00425419
  -0.00334981  0.75786886  0.00413233
   0.76060365  0.74045871  0.25520589
   0.74289094  0.50296620  0.00081569
   0.50305617  0.49861870  0.25283758
   0.25363240  0.25366817  0.75004351
   0.24046698  0.00267458  0.49098082
  -0.00142012  0.24965493  0.50002828
   0.25348864  0.74573526  0.75210712
   0.25089710  0.49808656  0.49589992
  -0.01271227  0.75124358  0.49459621
  -0.00629518  0.50012098  0.74089156
   0.74594360  0.73988357  0.74510706
   0.74890738  0.50529609  0.49947078
   0.51030720  0.73893421  0.50859973
   0.50712099  0.49991879  0.74658743
   0.50001688 -0.00019753 -0.00094973
  -0.00160621  0.50309945  0.00585754
   0.50362974  0.74281056  0.25334449
   0.24395516 -0.00064772  0.74753301
   0.49773318 -0.00500215  0.50084465
   0.75497794 -0.00680489  0.74442545
   0.24513554  0.74650844  0.49835047
  -0.00254599  0.76015702  0.25366310
   0.74305052  0.50939713  0.25110074
   0.00513309  0.00071519  0.48787021
   0.50568518  0.50585610  0.50237123
   0.74385644  0.50730553  0.74893046
   0.75312497  0.73379408  0.49923422
HECN                                    
           1
     8.889168   -0.007468    0.000038
    -0.007685    8.986813   -0.004716
     0.000056   -0.004717    8.884984
   Ti   Nb   Hf   N    C    Zr   V 
   7   6   6  13  19   7   6
Direct configuration=    10
  -0.00106097 -0.00541193  0.01349796
   0.24022037 -0.00647667  0.25387607
   0.25487049  0.50611930  0.25222287
   0.50154903  0.50237196 -0.00174689
   0.49666423  0.26491415  0.74755715
  -0.00380804  0.50356451  0.49322735
   0.50420402  0.73531016  0.74581429
  -0.00394369  0.24036655  0.26331203
   0.75262843  0.74113263  0.00118045
   0.00061696  0.26462509  0.73617736
   0.75369098  0.27344818  0.50330800
  -0.00551337  0.73617537  0.74267706
   0.25690830  0.50112747  0.74778802
   0.24550450  0.25375304  0.00244470
   0.50312184  0.25499779  0.25314861
   0.75775970 -0.00951743  0.25620438
   0.75202950  0.25790080 -0.00472415
   0.24784597  0.74731015  0.00000788
   0.24886009  0.25391602  0.49737879
   0.24943069  0.25032954  0.24995625
   0.24268743  0.00048827  0.00747154
  -0.00023578  0.24232053  0.00132815
   0.75121516  0.25108947  0.25259305
   0.75758946  0.00300017  0.00235483
   0.50191839  0.00430001  0.24913187
  -0.00188476  0.49915237  0.25866656
   0.50085964  0.74398452 -0.00562591
  -0.00309235  0.00126439  0.75180991
   0.74580255  0.25375972  0.74732462
   0.75761584  0.00262008  0.49819652
   0.50352780  0.25506783  0.50353405
   0.50359123  0.00085358  0.75029696
   0.00398079 -0.00552399  0.25231490
   0.50091332  0.25399826 -0.00391973
   0.24075824  0.74865768  0.24931300
   0.25437727  0.50011434  0.00514731
  -0.00321250  0.75623921  0.00412393
   0.75982842  0.73830292  0.25586446
   0.74441544  0.50262574  0.00164927
   0.50403172  0.50009041  0.25364349
   0.25417894  0.25332301  0.74975969
   0.23998834  0.00120782  0.49214023
  -0.00036967  0.25025097  0.50042360
   0.25290210  0.74568099  0.75078158
   0.25111117  0.49967844  0.49485055
  -0.01265527  0.75209085  0.49400190
  -0.00650915  0.50051206  0.74228609
   0.74638250  0.73873992  0.74498292
   0.74928315  0.50739106  0.49874216
   0.50908095  0.73871977  0.50675060
   0.50776495  0.49982143  0.74599922
   0.50169948  0.00041916 -0.00015543
  -0.00063663  0.50286412  0.00705287
   0.50442272  0.74546945  0.25408044
   0.24215159 -0.00120567  0.74649686
   0.49726994 -0.00681104  0.49998225
   0.75633197 -0.00948660  0.74351447
   0.24413287  0.74596495  0.49963752
  -0.00245516  0.76462183  0.25606873
   0.74011373  0.51205629  0.25101066
   0.00679305  0.00005718  0.48287084
   0.50807720  0.50661533  0.50274073
   0.74146633  0.50900254  0.74894006
   0.75320927  0.72465462  0.49851515
HECN                                    
           1
     8.896102   -0.005481   -0.000883
    -0.005680    8.989177   -0.004837
    -0.000866   -0.004834    8.893249
   Ti   Nb   Hf   N    C    Zr   V 
   7   6   6  13  19   7   6
Direct configuration=    11
  -0.00090194 -0.00540465  0.01282559
   0.24007900 -0.00629055  0.25386403
   0.25460313  0.50592448  0.25211535
   0.50164437  0.50217428 -0.00178103
   0.49675554  0.26452053  0.74787937
  -0.00372695  0.50346643  0.49387407
   0.50410841  0.73560862  0.74580030
  -0.00378486  0.24074920  0.26328490
   0.75282420  0.74107178  0.00113289
   0.00069431  0.26379840  0.73635369
   0.75421833  0.27231037  0.50314356
  -0.00542275  0.73695631  0.74297610
   0.25687998  0.50096552  0.74783784
   0.24576672  0.25351384  0.00238703
   0.50277477  0.25525289  0.25309390
   0.75797542 -0.00924367  0.25608091
   0.75188018  0.25783874 -0.00449379
   0.24795557  0.74753684  0.00023986
   0.24862347  0.25377424  0.49737521
   0.24949409  0.25017296  0.24992374
   0.24276381  0.00054204  0.00750700
  -0.00012556  0.24236935  0.00125205
   0.75100496  0.25112271  0.25240909
   0.75754913  0.00289950  0.00239620
   0.50165701  0.00440203  0.24912273
  -0.00181298  0.49937299  0.25857815
   0.50076113  0.74398413 -0.00578437
  -0.00310758  0.00116845  0.75175795
   0.74581097  0.25380075  0.74749851
   0.75751850  0.00228875  0.49808034
   0.50330839  0.25516398  0.50338961
   0.50354130  0.00083442  0.75030118
   0.00422355 -0.00525929  0.25216190
   0.50089211  0.25421212 -0.00397404
   0.24067441  0.74892497  0.24908302
   0.25466795  0.49999759  0.00498487
  -0.00323706  0.75653421  0.00412545
   0.75996972  0.73869339  0.25574468
   0.74413882  0.50268705  0.00149795
   0.50385435  0.49982376  0.25349717
   0.25407976  0.25338537  0.74981132
   0.24007569  0.00147348  0.49192948
  -0.00056048  0.25014283  0.50035188
   0.25300847  0.74569093  0.75102238
   0.25107184  0.49939018  0.49504128
  -0.01266587  0.75193744  0.49410991
  -0.00647025  0.50044132  0.74203268
   0.74630306  0.73894687  0.74500551
   0.74921437  0.50701169  0.49887462
   0.50930344  0.73875884  0.50708647
   0.50764800  0.49983890  0.74610616
   0.50139393  0.00030715 -0.00029958
  -0.00081249  0.50290652  0.00683577
   0.50427822  0.74498792  0.25394683
   0.24247906 -0.00110427  0.74668494
   0.49735437 -0.00648346  0.50013888
   0.75608665 -0.00900142  0.74368011
   0.24431517  0.74606358  0.49940354
  -0.00247241  0.76381353  0.25563167
   0.74064632  0.51157552  0.25102676
   0.00649130  0.00017588  0.48377943
   0.50764278  0.50647736  0.50267385
   0.74189989  0.50869584  0.74893809
   0.75319595  0.72630921  0.49864570
HECN                                    
           1
     8.892143   -0.002531   -0.003357
    -0.002685    9.006646   -0.000866
    -0.003337   -0.000914    8.899227
   Ti   Nb   Hf   N    C    Zr   V 
   7   6   6  13  19   7   6
Direct configuration=    12
  -0.00087427 -0.00561165  0.01415068
   0.24097792 -0.00671886  0.25309814
   0.25602516  0.50633248  0.25282598