  64  64   0   0
  0.1129557E+02  0.8932500E-09  0.9055600E-09  0.8937200E-09  0.5000000E-15
  1.000000000000000E-004
  CAR 
 HECN                                    
     13.70075307    -50.77523553  301      8.27456015      1.00000000
    -50.775  0.0000E+00  0.0000E+00
    -50.560  0.0000E+00  0.0000E+00
    -50.345  0.0000E+00  0.0000E+00
    -50.130  0.0000E+00  0.0000E+00
    -49.916  0.0000E+00  0.0000E+00
    -49.701  0.0000E+00  0.0000E+00
    -49.486  0.0000E+00  0.0000E+00
    -49.271  0.0000E+00  0.0000E+00
    -49.056  0.0000E+00  0.0000E+00
    -48.841  0.0000E+00  0.0000E+00
    -48.626  0.0000E+00  0.0000E+00
    -48.411  0.5166E-16  0.1110E-16
    -48.196  0.3058E-07  0.6572E-08
    -47.981  0.2470E-02  0.5309E-03
    -47.766  0.8113E-01  0.1797E-01
    -47.551  0.1554E+00  0.5137E-01
    -47.337  0.2007E+00  0.9450E-01
    -47.122  0.1179E+00  0.1198E+00
    -46.907  0.7201E-03  0.1200E+00
    -46.692  0.1387E-08  0.1200E+00
    -46.477  0.0000E+00  0.1200E+00
    -46.262  0.0000E+00  0.1200E+00
    -46.047  0.0000E+00  0.1200E+00
    -45.832  0.0000E+00  0.1200E+00
    -45.617  0.0000E+00  0.1200E+00
    -45.402  0.0000E+00  0.1200E+00
    -45.187  0.0000E+00  0.1200E+00
    -44.972  0.0000E+00  0.1200E+00
    -44.757  0.0000E+00  0.1200E+00
    -44.543  0.0000E+00  0.1200E+00
    -44.328  0.0000E+00  0.1200E+00
    -44.113  0.0000E+00  0.1200E+00
    -43.898  0.0000E+00  0.1200E+00
    -43.683  0.0000E+00  0.1200E+00
    -43.468  0.0000E+00  0.1200E+00
    -43.253  0.0000E+00  0.1200E+00
    -43.038  0.0000E+00  0.1200E+00
    -42.823  0.0000E+00  0.1200E+00
    -42.608  0.0000E+00  0.1200E+00
    -42.393  0.0000E+00  0.1200E+00
    -42.178  0.0000E+00  0.1200E+00
    -41.964  0.0000E+00  0.1200E+00
    -41.749  0.0000E+00  0.1200E+00
    -41.534  0.0000E+00  0.1200E+00
    -41.319  0.4449E-13  0.1200E+00
    -41.104  0.2138E-05  0.1200E+00
    -40.889  0.2116E-01  0.1245E+00
    -40.674  0.2358E+00  0.1752E+00
    -40.459  0.3735E-01  0.1833E+00
    -40.244  0.2013E+00  0.2265E+00
    -40.029  0.6907E-01  0.2414E+00
    -39.814  0.8111E-01  0.2588E+00
    -39.599  0.5529E-02  0.2600E+00
    -39.384  0.1975E-06  0.2600E+00
    -39.170  0.1023E-14  0.2600E+00
    -38.955  0.0000E+00  0.2600E+00
    -38.740  0.0000E+00  0.2600E+00
    -38.525  0.0000E+00  0.2600E+00
    -38.310  0.0000E+00  0.2600E+00
    -38.095  0.0000E+00  0.2600E+00
    -37.880  0.0000E+00  0.2600E+00
    -37.665  0.0000E+00  0.2600E+00
    -37.450  0.0000E+00  0.2600E+00
    -37.235  0.0000E+00  0.2600E+00
    -37.020  0.0000E+00  0.2600E+00
    -36.805  0.0000E+00  0.2600E+00
    -36.591  0.0000E+00  0.2600E+00
    -36.376  0.0000E+00  0.2600E+00
    -36.161  0.0000E+00  0.2600E+00
    -35.946  0.9836E-09  0.2600E+00
    -35.731  0.4829E-03  0.2601E+00
    -35.516  0.6669E-01  0.2744E+00
    -35.301  0.4058E+00  0.3617E+00
    -35.086  0.1004E+01  0.5773E+00
    -34.871  0.1971E+00  0.6197E+00
    -34.656  0.1393E-02  0.6200E+00
    -34.441  0.7633E-08  0.6200E+00
    -34.226  0.0000E+00  0.6200E+00
    -34.011  0.0000E+00  0.6200E+00
    -33.797  0.0000E+00  0.6200E+00
    -33.582  0.0000E+00  0.6200E+00
    -33.367  0.0000E+00  0.6200E+00
    -33.152  0.0000E+00  0.6200E+00
    -32.937  0.0000E+00  0.6200E+00
    -32.722  0.0000E+00  0.6200E+00
    -32.507  0.0000E+00  0.6200E+00
    -32.292  0.0000E+00  0.6200E+00
    -32.077  0.0000E+00  0.6200E+00
    -31.862  0.0000E+00  0.6200E+00
    -31.647  0.0000E+00  0.6200E+00
    -31.432  0.0000E+00  0.6200E+00
    -31.218  0.0000E+00  0.6200E+00
    -31.003  0.0000E+00  0.6200E+00
    -30.788  0.0000E+00  0.6200E+00
    -30.573  0.0000E+00  0.6200E+00
    -30.358  0.0000E+00  0.6200E+00
    -30.143  0.0000E+00  0.6200E+00
    -29.928  0.0000E+00  0.6200E+00
    -29.713  0.0000E+00  0.6200E+00
    -29.498  0.0000E+00  0.6200E+00
    -29.283  0.0000E+00  0.6200E+00
    -29.068  0.0000E+00  0.6200E+00
    -28.853  0.0000E+00  0.6200E+00
    -28.638  0.0000E+00  0.6200E+00
    -28.424  0.0000E+00  0.6200E+00
    -28.209  0.0000E+00  0.6200E+00
    -27.994  0.0000E+00  0.6200E+00
    -27.779  0.0000E+00  0.6200E+00
    -27.564  0.0000E+00  0.6200E+00
    -27.349  0.0000E+00  0.6200E+00
    -27.134  0.0000E+00  0.6200E+00
    -26.919  0.0000E+00  0.6200E+00
    -26.704  0.0000E+00  0.6200E+00
    -26.489  0.0000E+00  0.6200E+00
    -26.274  0.0000E+00  0.6200E+00
    -26.059  0.0000E+00  0.6200E+00
    -25.845  0.0000E+00  0.6200E+00
    -25.630  0.0000E+00  0.6200E+00
    -25.415  0.0000E+00  0.6200E+00
    -25.200  0.0000E+00  0.6200E+00
    -24.985  0.0000E+00  0.6200E+00
    -24.770  0.0000E+00  0.6200E+00
    -24.555  0.2170E-11  0.6200E+00
    -24.340  0.1925E-04  0.6200E+00
    -24.125  0.4219E-01  0.6291E+00
    -23.910  0.2359E+00  0.6798E+00
    -23.695  0.5134E+00  0.7901E+00
    -23.480  0.5251E+00  0.9030E+00
    -23.265  0.3403E+00  0.9761E+00
    -23.051  0.1814E-01  0.9800E+00
    -22.836  0.6460E-01  0.9939E+00
    -22.621  0.2051E+00  0.1038E+01
    -22.406  0.2650E+00  0.1095E+01
    -22.191  0.9180E+00  0.1292E+01
    -21.976  0.4401E+00  0.1387E+01
    -21.761  0.6121E-01  0.1400E+01
    -21.546  0.1950E-03  0.1400E+01
    -21.331  0.1661E-09  0.1400E+01
    -21.116  0.0000E+00  0.1400E+01
    -20.901  0.0000E+00  0.1400E+01
    -20.686  0.0000E+00  0.1400E+01
    -20.472  0.0000E+00  0.1400E+01
    -20.257  0.0000E+00  0.1400E+01
    -20.042  0.0000E+00  0.1400E+01
    -19.827  0.5905E-11  0.1400E+01
    -19.612  0.3233E-04  0.1400E+01
    -19.397  0.3411E-01  0.1407E+01
    -19.182  0.1935E+00  0.1449E+01
    -18.967  0.4388E+00  0.1543E+01
    -18.752  0.2502E+00  0.1597E+01
    -18.537  0.6465E+00  0.1736E+01
    -18.322  0.2083E+00  0.1781E+01
    -18.107  0.1814E+00  0.1820E+01
    -17.892  0.1488E-02  0.1820E+01
    -17.678  0.4347E-08  0.1820E+01
    -17.463  0.0000E+00  0.1820E+01
    -17.248  0.0000E+00  0.1820E+01
    -17.033  0.0000E+00  0.1820E+01
    -16.818  0.0000E+00  0.1820E+01
    -16.603  0.0000E+00  0.1820E+01
    -16.388  0.0000E+00  0.1820E+01
    -16.173  0.0000E+00  0.1820E+01
    -15.958  0.0000E+00  0.1820E+01
    -15.743  0.0000E+00  0.1820E+01
    -15.528  0.0000E+00  0.1820E+01
    -15.313  0.0000E+00  0.1820E+01
    -15.099  0.0000E+00  0.1820E+01
    -14.884  0.0000E+00  0.1820E+01
    -14.669  0.0000E+00  0.1820E+01
    -14.454  0.0000E+00  0.1820E+01
    -14.239  0.0000E+00  0.1820E+01
    -14.024  0.0000E+00  0.1820E+01
    -13.809  0.0000E+00  0.1820E+01
    -13.594  0.0000E+00  0.1820E+01
    -13.379  0.0000E+00  0.1820E+01
    -13.164  0.0000E+00  0.1820E+01
    -12.949  0.0000E+00  0.1820E+01
    -12.734  0.0000E+00  0.1820E+01
    -12.519  0.0000E+00  0.1820E+01
    -12.305  0.0000E+00  0.1820E+01
    -12.090  0.0000E+00  0.1820E+01
    -11.875  0.0000E+00  0.1820E+01
    -11.660  0.0000E+00  0.1820E+01
    -11.445  0.0000E+00  0.1820E+01
    -11.230  0.0000E+00  0.1820E+01
    -11.015  0.0000E+00  0.1820E+01
    -10.800  0.0000E+00  0.1820E+01
    -10.585  0.0000E+00  0.1820E+01
    -10.370  0.0000E+00  0.1820E+01
    -10.155  0.0000E+00  0.1820E+01
     -9.940  0.0000E+00  0.1820E+01
     -9.726  0.0000E+00  0.1820E+01
     -9.511  0.0000E+00  0.1820E+01
     -9.296  0.0000E+00  0.1820E+01
     -9.081  0.0000E+00  0.1820E+01
     -8.866  0.0000E+00  0.1820E+01
     -8.651  0.0000E+00  0.1820E+01
     -8.436  0.0000E+00  0.1820E+01
     -8.221  0.2219E-16  0.1820E+01
     -8.006  0.6132E-08  0.1820E+01
     -7.791  0.3924E-03  0.1820E+01
     -7.576  0.4179E-01  0.1829E+01
     -7.361  0.5468E-01  0.1841E+01
     -7.146  0.1470E+00  0.1872E+01
     -6.932  0.1280E+00  0.1900E+01
     -6.717  0.9564E-01  0.1920E+01
     -6.502  0.1857E+00  0.1960E+01
     -6.287  0.1790E+00  0.1999E+01
     -6.072  0.1452E+00  0.2030E+01
     -5.857  0.1827E+00  0.2069E+01
     -5.642  0.4948E-01  0.2080E+01
     -5.427  0.9846E-04  0.2080E+01
     -5.212  0.4732E-10  0.2080E+01
     -4.997  0.0000E+00  0.2080E+01
     -4.782  0.0000E+00  0.2080E+01
     -4.567  0.1686E-09  0.2080E+01
     -4.353  0.5826E-04  0.2080E+01
     -4.138  0.1367E-01  0.2083E+01
     -3.923  0.6400E-01  0.2097E+01
     -3.708  0.2865E-01  0.2103E+01
     -3.493  0.1297E+00  0.2131E+01
     -3.278  0.1611E+00  0.2165E+01
     -3.063  0.2515E+00  0.2219E+01
     -2.848  0.2442E+00  0.2272E+01
     -2.633  0.1886E+00  0.2312E+01
     -2.418  0.1895E+00  0.2353E+01
     -2.203  0.1894E+00  0.2394E+01
     -1.988  0.1467E+00  0.2425E+01
     -1.773  0.9390E-01  0.2446E+01
     -1.559  0.5866E-01  0.2458E+01
     -1.344  0.8336E-02  0.2460E+01
     -1.129  0.6592E-04  0.2460E+01
     -0.914  0.3677E-09  0.2460E+01
     -0.699  0.3826E-18  0.2460E+01
     -0.484  0.0000E+00  0.2460E+01
     -0.269  0.0000E+00  0.2460E+01
     -0.054  0.0000E+00  0.2460E+01
      0.161  0.3342E-11  0.2460E+01
      0.376  0.5314E-05  0.2460E+01
      0.591  0.2344E-02  0.2461E+01
      0.806  0.9962E-02  0.2463E+01
      1.020  0.4896E-01  0.2473E+01
      1.235  0.9263E-01  0.2493E+01
      1.450  0.1272E+00  0.2520E+01
      1.665  0.1858E+00  0.2560E+01
      1.880  0.2485E+00  0.2614E+01
      2.095  0.2833E+00  0.2675E+01
      2.310  0.2869E+00  0.2736E+01
      2.525  0.2832E+00  0.2797E+01
      2.740  0.3462E+00  0.2872E+01
      2.955  0.3716E+00  0.2951E+01
      3.170  0.4440E+00  0.3047E+01
      3.385  0.5266E+00  0.3160E+01
      3.600  0.5852E+00  0.3286E+01
      3.814  0.6677E+00  0.3429E+01
      4.029  0.6552E+00  0.3570E+01
      4.244  0.6210E+00  0.3704E+01
      4.459  0.5742E+00  0.3827E+01
      4.674  0.4873E+00  0.3932E+01
      4.889  0.4734E+00  0.4033E+01
      5.104  0.3853E+00  0.4116E+01
      5.319  0.3104E+00  0.4183E+01
      5.534  0.2846E+00  0.4244E+01
      5.749  0.2456E+00  0.4297E+01
      5.964  0.1713E+00  0.4334E+01
      6.179  0.1532E+00  0.4367E+01
      6.393  0.1098E+00  0.4390E+01
      6.608  0.1322E+00  0.4419E+01
      6.823  0.1906E+00  0.4460E+01
      7.038  0.1819E+00  0.4499E+01
      7.253  0.2426E+00  0.4551E+01
      7.468  0.2219E+00  0.4599E+01
      7.683  0.2199E+00  0.4646E+01
      7.898  0.2759E+00  0.4705E+01
      8.113  0.3108E+00  0.4772E+01
      8.328  0.2269E+00  0.4821E+01
      8.543  0.2569E+00  0.4876E+01
      8.758  0.3208E+00  0.4945E+01
      8.973  0.3969E+00  0.5030E+01
      9.187  0.4097E+00  0.5118E+01
      9.402  0.4451E+00  0.5214E+01
      9.617  0.4515E+00  0.5311E+01
      9.832  0.4506E+00  0.5408E+01
     10.047  0.4350E+00  0.5501E+01
     10.262  0.4136E+00  0.5590E+01
     10.477  0.3840E+00  0.5673E+01
     10.692  0.3145E+00  0.5740E+01
     10.907  0.9109E-01  0.5760E+01
     11.122  0.7494E-03  0.5760E+01
     11.337  0.6384E-08  0.5760E+01
     11.552  0.9184E-17  0.5760E+01
     11.766  0.0000E+00  0.5760E+01
     11.981  0.0000E+00  0.5760E+01
     12.196  0.0000E+00  0.5760E+01
     12.411  0.0000E+00  0.5760E+01
     12.626  0.0000E+00  0.5760E+01
     12.841  0.0000E+00  0.5760E+01
     13.056  0.0000E+00  0.5760E+01
     13.271  0.0000E+00  0.5760E+01
     13.486  0.0000E+00  0.5760E+01
     13.701  0.0000E+00  0.5760E+01
