 running on   24 total cores
 distrk:  each k-point on   24 cores,    1 groups
 distr:  one band on    1 cores,   24 groups
 using from now: INCAR     
 vasp.5.4.4.18Apr17-6-g9f103f2a35 (build Oct 18 2021 20:38:43) complex          
  
 POSCAR found type information on POSCAR  Hf Nb Zr N  C  Cr Mo
 POSCAR found :  7 types and      64 ions
 scaLAPACK will be used

 ----------------------------------------------------------------------------- 
|                                                                             |
|           W    W    AA    RRRRR   N    N  II  N    N   GGGG   !!!           |
|           W    W   A  A   R    R  NN   N  II  NN   N  G    G  !!!           |
|           W    W  A    A  R    R  N N  N  II  N N  N  G       !!!           |
|           W WW W  AAAAAA  RRRRR   N  N N  II  N  N N  G  GGG   !            |
|           WW  WW  A    A  R   R   N   NN  II  N   NN  G    G                |
|           W    W  A    A  R    R  N    N  II  N    N   GGGG   !!!           |
|                                                                             |
|      For optimal performance we recommend to set                            |
|        NCORE= 4 - approx SQRT( number of cores)                             |
|      NCORE specifies how many cores store one orbital (NPAR=cpu/NCORE).     |
|      This setting can  greatly improve the performance of VASP for DFT.     |
|      The default,   NCORE=1            might be grossly inefficient         |
|      on modern multi-core architectures or massively parallel machines.     |
|      Do your own testing !!!!                                               |
|      Unfortunately you need to use the default for GW and RPA calculations. |
|      (for HF NCORE is supported but not extensively tested yet)             |
|                                                                             |
 ----------------------------------------------------------------------------- 


 ----------------------------------------------------------------------------- 
|                                                                             |
|  ADVICE TO THIS USER RUNNING 'VASP/VAMP'   (HEAR YOUR MASTER'S VOICE ...):  |
|                                                                             |
|      You have a (more or less) 'large supercell' and for larger cells       |
|      it might be more efficient to use real space projection operators      |
|      So try LREAL= Auto  in the INCAR   file.                               |
|      Mind: If you want to do a very accurate calculations keep the          |
|      reciprocal projection scheme          (i.e. LREAL=.FALSE.)             |
|                                                                             |
 ----------------------------------------------------------------------------- 

 LDA part: xc-table for Pade appr. of Perdew
 POSCAR, INCAR and KPOINTS ok, starting setup
 FFT: planning ...
 WAVECAR not read
 entering main loop
       N       E                     dE             d eps       ncg     rms          rms(c)
DAV:   1     0.561901258861E+04    0.56190E+04   -0.19700E+05  8232   0.151E+03
DAV:   2     0.261331921908E+03   -0.53577E+04   -0.51434E+04  8664   0.625E+02
DAV:   3    -0.660070236817E+03   -0.92140E+03   -0.86647E+03 13296   0.219E+02
DAV:   4    -0.765704431448E+03   -0.10563E+03   -0.10215E+03 14736   0.876E+01
DAV:   5    -0.779220667786E+03   -0.13516E+02   -0.13211E+02 15864   0.266E+01    0.758E+01
RMM:   6    -0.954288678686E+03   -0.17507E+03   -0.27846E+03 11289   0.158E+02    0.123E+02
RMM:   7    -0.636977864799E+03    0.31731E+03   -0.31719E+02 12447   0.446E+01    0.355E+01
RMM:   8    -0.650157292794E+03   -0.13179E+02   -0.77428E+01 12979   0.214E+01    0.386E+01
RMM:   9    -0.644127228177E+03    0.60301E+01   -0.26122E+01 12408   0.139E+01    0.289E+01
RMM:  10    -0.638616580218E+03    0.55106E+01   -0.13972E+01 12951   0.897E+00    0.150E+01
RMM:  11    -0.639926670648E+03   -0.13101E+01   -0.57526E+00 12707   0.605E+00    0.235E+01
RMM:  12    -0.637142745970E+03    0.27839E+01   -0.63138E+00 12783   0.652E+00    0.110E+01
RMM:  13    -0.637576969426E+03   -0.43422E+00   -0.35045E+00 13061   0.463E+00    0.134E+01
RMM:  14    -0.637511467605E+03    0.65502E-01   -0.39807E+00 12998   0.432E+00    0.934E+00
RMM:  15    -0.637690817152E+03   -0.17935E+00   -0.12621E+00 11962   0.301E+00    0.109E+01
RMM:  16    -0.636815267206E+03    0.87555E+00   -0.11216E+00 12653   0.273E+00    0.291E+00
RMM:  17    -0.637004534810E+03   -0.18927E+00   -0.10807E+00 12973   0.239E+00    0.735E+00
RMM:  18    -0.636893231998E+03    0.11130E+00   -0.99496E-01 13265   0.234E+00    0.210E+00
RMM:  19    -0.636889241893E+03    0.39901E-02   -0.40428E-01 12283   0.125E+00    0.168E+00
RMM:  20    -0.636840246308E+03    0.48996E-01   -0.14405E-01 12628   0.957E-01    0.872E-01
RMM:  21    -0.636835720873E+03    0.45254E-02   -0.13230E-01 13199   0.684E-01    0.532E-01
RMM:  22    -0.636837948821E+03   -0.22279E-02   -0.49514E-02 11262   0.658E-01    0.169E-01
RMM:  23    -0.636839780443E+03   -0.18316E-02   -0.25833E-02 12695   0.257E-01    0.901E-02
RMM:  24    -0.636840862885E+03   -0.10824E-02   -0.14647E-02 10850   0.245E-01    0.500E-02
RMM:  25    -0.636841636820E+03   -0.77393E-03   -0.94221E-03 12087   0.113E-01    0.243E-02
RMM:  26    -0.636842015038E+03   -0.37822E-03   -0.48502E-03 11396   0.864E-02    0.254E-02
RMM:  27    -0.636842190872E+03   -0.17583E-03   -0.22404E-03 10817   0.674E-02    0.168E-02
RMM:  28    -0.636842321682E+03   -0.13081E-03   -0.14969E-03 10431   0.513E-02    0.622E-03
RMM:  29    -0.636842390233E+03   -0.68551E-04   -0.81670E-04 10230   0.423E-02    0.957E-03
RMM:  30    -0.636842436736E+03   -0.46503E-04   -0.51642E-04  9792   0.341E-02    0.533E-03
RMM:  31    -0.636842461651E+03   -0.24915E-04   -0.30440E-04  9356   0.281E-02    0.499E-03
WARNING in EDDRMM: call to ZHEGV failed, returncode =   8  4      6
RMM:  32    -0.636842479152E+03   -0.17501E-04   -0.19711E-04  8861   0.231E-02    0.292E-03
RMM:  33    -0.636842490000E+03   -0.10847E-04   -0.12083E-04  8205   0.200E-02    0.111E-03
WARNING in EDDRMM: call to ZHEGV failed, returncode =   6  3     10
RMM:  34    -0.636842496383E+03   -0.63835E-05   -0.78169E-05  7414   0.179E-02
   1 F= -.63684250E+03 E0= -.63675738E+03  d E =-.636842E+03
 curvature:   0.00 expect dE= 0.000E+00 dE for cont linesearch  0.000E+00
 trial: gam= 0.00000 g(F)=  0.338E+01 g(S)=  0.279E+00 ort = 0.000E+00 (trialstep = 0.100E+01)
 search vector abs. value=  0.366E+01
 bond charge predicted
       N       E                     dE             d eps       ncg     rms          rms(c)
DAV:   1    -0.635493723424E+03    0.13488E+01   -0.58799E+02  9648   0.959E+01    0.131E+01
RMM:   2    -0.661159641951E+03   -0.25666E+02   -0.91810E+01 10771   0.356E+01    0.478E+01
RMM:   3    -0.639220919228E+03    0.21939E+02   -0.14793E+01 10631   0.152E+01    0.943E+00
RMM:   4    -0.639782884828E+03   -0.56197E+00   -0.43498E+00 12449   0.552E+00    0.127E+01
RMM:   5    -0.638890157530E+03    0.89273E+00   -0.11537E+00 10401   0.392E+00    0.593E+00
RMM:   6    -0.639019151088E+03   -0.12899E+00   -0.79741E-01 12824   0.209E+00    0.800E+00
RMM:   7    -0.639024270811E+03   -0.51197E-02   -0.67094E-01 12357   0.209E+00    0.805E+00
RMM:   8    -0.638788181489E+03    0.23609E+00   -0.29601E-01 11829   0.179E+00    0.340E+00
RMM:   9    -0.638729407570E+03    0.58774E-01   -0.22092E-01 13850   0.909E-01    0.110E+00
RMM:  10    -0.638748027939E+03   -0.18620E-01   -0.78455E-02 13314   0.687E-01    0.234E+00
RMM:  11    -0.638731543123E+03    0.16485E-01   -0.48816E-02 13608   0.481E-01    0.558E-01
RMM:  12    -0.638734841360E+03   -0.32982E-02   -0.32481E-02 13911   0.291E-01    0.517E-01
RMM:  13    -0.638736875048E+03   -0.20337E-02   -0.11729E-02 11240   0.356E-01    0.665E-01
RMM:  14    -0.638737027204E+03   -0.15216E-03   -0.13597E-02 13706   0.200E-01    0.248E-01
RMM:  15    -0.638738153318E+03   -0.11261E-02   -0.75654E-03 13606   0.178E-01    0.159E-01
RMM:  16    -0.638738465370E+03   -0.31205E-03   -0.38424E-03 13379   0.146E-01    0.687E-02
RMM:  17    -0.638738732387E+03   -0.26702E-03   -0.35781E-03 12570   0.103E-01    0.416E-02
RMM:  18    -0.638738853021E+03   -0.12063E-03   -0.17981E-03 11920   0.905E-02    0.310E-02
RMM:  19    -0.638738959641E+03   -0.10662E-03   -0.12990E-03 11241   0.620E-02    0.241E-02
RMM:  20    -0.638739008537E+03   -0.48897E-04   -0.64448E-04 11062   0.491E-02    0.124E-02
RMM:  21    -0.638739044848E+03   -0.36311E-04   -0.41304E-04 10690   0.377E-02    0.758E-03
RMM:  22    -0.638739063492E+03   -0.18644E-04   -0.23119E-04 10495   0.311E-02    0.450E-03
RMM:  23    -0.638739076674E+03   -0.13182E-04   -0.15319E-04  9766   0.244E-02    0.266E-03
WARNING in EDDRMM: call to ZHEGV failed, returncode =   8  4     10
WARNING in EDDRMM: call to ZHEGV failed, returncode =   8  4      7
RMM:  24    -0.638739084293E+03   -0.76191E-05   -0.94144E-05  8814   0.211E-02
   2 F= -.63873908E+03 E0= -.63865982E+03  d E =-.189659E+01
 trial-energy change:   -1.896588  1 .order   -1.873088   -3.656347   -0.089828
 step:   1.0242(harm=  1.0252)  dis= 0.09580  next Energy=  -638.740172 (dE=-0.190E+01)
 bond charge predicted
       N       E                     dE             d eps       ncg     rms          rms(c)
DAV:   1    -0.638738177922E+03    0.89875E-03   -0.34847E-01 10488   0.234E+00    0.331E-01
RMM:   2    -0.638758014306E+03   -0.19836E-01   -0.49378E-02 11198   0.766E-01    0.161E+00
RMM:   3    -0.638741226700E+03    0.16788E-01   -0.90933E-03  9889   0.405E-01    0.515E-01
RMM:   4    -0.638740502629E+03    0.72407E-03   -0.25802E-03 11858   0.142E-01    0.266E-01
RMM:   5    -0.638740725630E+03   -0.22300E-03   -0.10192E-03 10702   0.891E-02    0.374E-01
RMM:   6    -0.638740103044E+03    0.62259E-03   -0.41696E-04  8724   0.775E-02    0.912E-02
RMM:   7    -0.638740427026E+03   -0.32398E-03   -0.51397E-04 10919   0.616E-02    0.296E-01
RMM:   8    -0.638740082920E+03    0.34411E-03   -0.26655E-04  9804   0.605E-02    0.713E-02
RMM:   9    -0.638740126131E+03   -0.43211E-04   -0.20357E-04  8831   0.371E-02    0.120E-01
RMM:  10    -0.638740069598E+03    0.56533E-04   -0.74489E-05  6605   0.277E-02    0.185E-02
RMM:  11    -0.638740076656E+03   -0.70582E-05   -0.40416E-05  5635   0.193E-02
   3 F= -.63874008E+03 E0= -.63866100E+03  d E =-.189758E+01
 curvature:  -0.51 expect dE=-0.525E+00 dE for cont linesearch -0.181E-05
 trial: gam= 0.28149 g(F)=  0.557E+00 g(S)=  0.468E+00 ort =-0.360E-02 (trialstep = 0.100E+01)
 search vector abs. value=  0.131E+01
 bond charge predicted
       N       E                     dE             d eps       ncg     rms          rms(c)
DAV:   1    -0.639426543618E+03   -0.68647E+00   -0.24548E+02 11736   0.819E+01    0.199E+01
RMM:   2    -0.695074582455E+03   -0.55648E+02   -0.52834E+01 11438   0.229E+01    0.568E+01
RMM:   3    -0.641840147537E+03    0.53234E+02   -0.19794E+01 10265   0.190E+01    0.181E+01
RMM:   4    -0.639975579096E+03    0.18646E+01   -0.45112E+00 12859   0.547E+00    0.938E+00
RMM:   5    -0.639929188506E+03    0.46391E-01   -0.16788E+00 10389   0.464E+00    0.124E+01
RMM:   6    -0.639329260494E+03    0.59993E+00   -0.92779E-01 11111   0.313E+00    0.602E+00
RMM:   7    -0.639526619146E+03   -0.19736E+00   -0.60516E-01 11585   0.208E+00    0.982E+00
RMM:   8    -0.639093074348E+03    0.43354E+00   -0.27714E-01 11266   0.189E+00    0.221E+00
RMM:   9    -0.639203887726E+03   -0.11081E+00   -0.23600E-01 12387   0.136E+00    0.533E+00
RMM:  10    -0.639084789799E+03    0.11910E+00   -0.88816E-02 11322   0.118E+00    0.184E+00
RMM:  11    -0.639080471532E+03    0.43183E-02   -0.87799E-02 13661   0.574E-01    0.134E+00
RMM:  12    -0.639075108215E+03    0.53633E-02   -0.28498E-02 13595   0.417E-01    0.555E-01
RMM:  13    -0.639075810877E+03   -0.70266E-03   -0.19487E-02 13542   0.237E-01    0.313E-01
RMM:  14    -0.639077338412E+03   -0.15275E-02   -0.88469E-03 13633   0.201E-01    0.296E-01
RMM:  15    -0.639078879185E+03   -0.15408E-02   -0.94698E-03 13326   0.209E-01    0.126E-01
RMM:  16    -0.639079441662E+03   -0.56248E-03   -0.70907E-03 13145   0.142E-01    0.745E-02
RMM:  17    -0.639079632199E+03   -0.19054E-03   -0.32050E-03 12576   0.131E-01    0.574E-02
RMM:  18    -0.639079894238E+03   -0.26204E-03   -0.29920E-03 11913   0.871E-02    0.486E-02
RMM:  19    -0.639079970203E+03   -0.75965E-04   -0.12519E-03 11437   0.760E-02    0.403E-02
RMM:  20    -0.639080042010E+03   -0.71807E-04   -0.10161E-03 10808   0.493E-02    0.293E-02
RMM:  21    -0.639080059031E+03   -0.17021E-04   -0.46314E-04 11226   0.443E-02    0.154E-02
RMM:  22    -0.639080087173E+03   -0.28142E-04   -0.27866E-04 10274   0.354E-02    0.147E-02
RMM:  23    -0.639080102232E+03   -0.15059E-04   -0.18522E-04  9666   0.254E-02    0.139E-02
RMM:  24    -0.639080109740E+03   -0.75076E-05   -0.10912E-04  9039   0.230E-02    0.112E-02
WARNING in EDDRMM: call to ZHEGV failed, returncode =   8  4      9
RMM:  25    -0.639080114476E+03   -0.47362E-05   -0.75700E-05  8203   0.190E-02
   4 F= -.63908011E+03 E0= -.63900358E+03  d E =-.340038E+00
 trial-energy change:   -0.340038  1 .order   -0.348470   -1.029592    0.332651
 step:   0.7524(harm=  0.7595)  dis= 0.04184  next Energy=  -639.122026 (dE=-0.382E+00)
 bond charge predicted
       N       E                     dE             d eps       ncg     rms          rms(c)
DAV:   1    -0.639131774621E+03   -0.51665E-01   -0.15164E+01 11496   0.211E+01    0.486E+00
RMM:   2    -0.644216595799E+03   -0.50848E+01   -0.70309E+00  9951   0.103E+01    0.255E+01
RMM:   3    -0.639294514184E+03    0.49221E+01   -0.17344E+00 10012   0.577E+00    0.593E+00
RMM:   4    -0.639164150269E+03    0.13036E+00   -0.24916E-01 11475   0.168E+00    0.253E+00
RMM:   5    -0.639207649059E+03   -0.43499E-01   -0.11314E-01 11942   0.948E-01    0.439E+00
RMM:   6    -0.639127498554E+03    0.80151E-01   -0.43043E-02 10608   0.790E-01    0.910E-01
RMM:   7    -0.639150329327E+03   -0.22831E-01   -0.39662E-02 11787   0.578E-01    0.253E+00
RMM:   8    -0.639123223241E+03    0.27106E-01   -0.20648E-02 11242   0.515E-01    0.676E-01
RMM:   9    -0.639126175280E+03   -0.29520E-02   -0.12424E-02 12404   0.284E-01    0.112E+00
RMM:  10    -0.639121291090E+03    0.48842E-02   -0.48089E-03 12019   0.212E-01    0.194E-01
RMM:  11    -0.639121673486E+03   -0.38240E-03   -0.39058E-03 12705   0.104E-01    0.252E-01
RMM:  12    -0.639121496326E+03    0.17716E-03   -0.97426E-04 11343   0.914E-02    0.108E-01
RMM:  13    -0.639121647895E+03   -0.15157E-03   -0.10351E-03 12188   0.522E-02    0.666E-02
RMM:  14    -0.639121753911E+03   -0.10602E-03   -0.44672E-04 11256   0.603E-02    0.452E-02
RMM:  15    -0.639121836507E+03   -0.82596E-04   -0.50185E-04 11629   0.386E-02    0.171E-02
RMM:  16    -0.639121857086E+03   -0.20579E-04   -0.21657E-04 10222   0.423E-02    0.130E-02
RMM:  17    -0.639121873385E+03   -0.16299E-04   -0.18351E-04  9575   0.243E-02    0.122E-02
RMM:  18    -0.639121881694E+03   -0.83087E-05   -0.90337E-05  8337   0.238E-02
   5 F= -.63912188E+03 E0= -.63904450E+03  d E =-.381805E+00
 curvature:  -0.49 expect dE=-0.308E+00 dE for cont linesearch -0.740E-05
 trial: gam= 0.63010 g(F)=  0.364E+00 g(S)=  0.270E+00 ort =-0.447E-02 (trialstep = 0.954E+00)
 search vector abs. value=  0.115E+01
 bond charge predicted
       N       E                     dE             d eps       ncg     rms          rms(c)
DAV:   1    -0.635490577749E+03    0.36313E+01   -0.21852E+02  9768   0.874E+01    0.573E+00
RMM:   2    -0.645091942470E+03   -0.96014E+01   -0.52392E+01 12820   0.188E+01    0.257E+01
RMM:   3    -0.639598011897E+03    0.54939E+01   -0.46437E+00  9600   0.966E+00    0.673E+00
RMM:   4    -0.639699376632E+03   -0.10136E+00   -0.20481E+00 12744   0.292E+00    0.599E+00
RMM:   5    -0.639531538276E+03    0.16784E+00   -0.30418E-01 12060   0.162E+00    0.281E+00
RMM:   6    -0.639514093926E+03    0.17444E-01   -0.16511E-01 13142   0.818E-01    0.228E+00
RMM:   7    -0.639489760386E+03    0.24334E-01   -0.14693E-01 12217   0.945E-01    0.232E+00
RMM:   8    -0.639490254537E+03   -0.49415E-03   -0.72488E-02 11500   0.835E-01    0.258E+00
RMM:   9    -0.639467859355E+03    0.22395E-01   -0.74778E-02 12389   0.738E-01    0.137E+00
RMM:  10    -0.639461152740E+03    0.67066E-02   -0.26665E-02 12620   0.412E-01    0.597E-01
RMM:  11    -0.639459454790E+03    0.16980E-02   -0.14437E-02 13670   0.237E-01    0.256E-01
RMM:  12    -0.639460977883E+03   -0.15231E-02   -0.75169E-03 13238   0.187E-01    0.541E-01
RMM:  13    -0.639459987744E+03    0.99014E-03   -0.37275E-03 12035   0.174E-01    0.189E-01
RMM:  14    -0.639460210539E+03   -0.22280E-03   -0.30809E-03 12621   0.872E-02    0.918E-02
RMM:  15    -0.639460415557E+03   -0.20502E-03   -0.13501E-03 12467   0.773E-02    0.481E-02
RMM:  16    -0.639460506880E+03   -0.91323E-04   -0.85407E-04 11700   0.657E-02    0.235E-02
RMM:  17    -0.639460558344E+03   -0.51464E-04   -0.63921E-04 11118   0.452E-02    0.158E-02
RMM:  18    -0.639460584868E+03   -0.26524E-04   -0.35094E-04 10481   0.378E-02    0.105E-02
RMM:  19    -0.639460600857E+03   -0.15989E-04   -0.20434E-04  9633   0.284E-02    0.665E-03
RMM:  20    -0.639460611534E+03   -0.10677E-04   -0.12380E-04  8887   0.229E-02    0.496E-03
RMM:  21    -0.639460618141E+03   -0.66077E-05   -0.72978E-05  7772   0.203E-02
   6 F= -.63946062E+03 E0= -.63939107E+03  d E =-.338736E+00
 trial-energy change:   -0.338736  1 .order   -0.321869   -0.601688   -0.042050
 step:   1.0145(harm=  1.0261)  dis= 0.06273  next Energy=  -639.461947 (dE=-0.340E+00)
 bond charge predicted
       N       E                     dE             d eps       ncg     rms          rms(c)
DAV:   1    -0.639443491769E+03    0.17120E-01   -0.84369E-01  9552   0.561E+00    0.345E-01
RMM:   2    -0.639479841852E+03   -0.36350E-01   -0.20881E-01 13082   0.111E+00    0.172E+00
RMM:   3    -0.639464857918E+03    0.14984E-01   -0.17048E-02  9529   0.599E-01    0.842E-01
RMM:   4    -0.639462703013E+03    0.21549E-02   -0.73429E-03 11335   0.221E-01    0.316E-01
RMM:   5    -0.639462303482E+03    0.39953E-03   -0.18933E-03 11307   0.106E-01    0.242E-01
RMM:   6    -0.639462128783E+03    0.17470E-03   -0.68775E-04  9560   0.614E-02    0.140E-01
RMM:   7    -0.639462139848E+03   -0.11065E-04   -0.60555E-04 11544   0.586E-02    0.186E-01
RMM:   8    -0.639462001834E+03    0.13801E-03   -0.28232E-04  8882   0.644E-02    0.102E-01
RMM:   9    -0.639461948204E+03    0.53630E-04   -0.35009E-04 11454   0.454E-02    0.442E-02
RMM:  10    -0.639461962752E+03   -0.14548E-04   -0.91541E-05  7010   0.315E-02    0.640E-02
RMM:  11    -0.639461948496E+03    0.14256E-04   -0.46555E-05  5821   0.258E-02    0.152E-02
RMM:  12    -0.639461953568E+03   -0.50718E-05   -0.39648E-05  5553   0.164E-02
   7 F= -.63946195E+03 E0= -.63939290E+03  d E =-.340072E+00
 curvature:  -0.91 expect dE=-0.306E+00 dE for cont linesearch -0.463E-06
 trial: gam= 0.46453 g(F)=  0.309E+00 g(S)=  0.271E-01 ort =-0.764E-03 (trialstep = 0.966E+00)
 search vector abs. value=  0.584E+00
 bond charge predicted
       N       E                     dE             d eps       ncg     rms          rms(c)
DAV:   1    -0.637294985982E+03    0.21670E+01   -0.11559E+02  9048   0.631E+01    0.274E+00
RMM:   2    -0.640123364553E+03   -0.28284E+01   -0.24520E+01 13057   0.118E+01    0.103E+01
RMM:   3    -0.639747572218E+03    0.37579E+00   -0.12358E+00  9553   0.504E+00    0.433E+00
RMM:   4    -0.639805537903E+03   -0.57966E-01   -0.58209E-01 12070   0.197E+00    0.475E+00
RMM:   5    -0.639697277238E+03    0.10826E+00   -0.12976E-01 11521   0.109E+00    0.181E+00
RMM:   6    -0.639688587854E+03    0.86894E-02   -0.10040E-01 13313   0.504E-01    0.105E+00
RMM:   7    -0.639698049323E+03   -0.94615E-02   -0.46785E-02 12842   0.459E-01    0.214E+00
RMM:   8    -0.639679904426E+03    0.18145E-01   -0.27080E-02 10966   0.520E-01    0.907E-01
RMM:   9    -0.639676808405E+03    0.30960E-02   -0.36120E-02 12768   0.358E-01    0.681E-01
RMM:  10    -0.639675731603E+03    0.10768E-02   -0.74938E-03 11136   0.278E-01    0.509E-01
RMM:  11    -0.639674545105E+03    0.11865E-02   -0.57831E-03 12876   0.145E-01    0.102E-01
RMM:  12    -0.639674694563E+03   -0.14946E-03   -0.24944E-03 12652   0.918E-02    0.136E-01
RMM:  13    -0.639674796145E+03   -0.10158E-03   -0.97356E-04 10843   0.903E-02    0.165E-01
RMM:  14    -0.639674758575E+03    0.37570E-04   -0.11916E-03 11674   0.549E-02    0.411E-02
RMM:  15    -0.639674784813E+03   -0.26238E-04   -0.39890E-04 11231   0.380E-02    0.263E-02
WARNING in EDDRMM: call to ZHEGV failed, returncode =   8  4      5
RMM:  16    -0.639674793490E+03   -0.86771E-05   -0.19138E-04  9525   0.337E-02    0.129E-02
RMM:  17    -0.639674806009E+03   -0.12519E-04   -0.17322E-04  8124   0.246E-02    0.668E-03
RMM:  18    -0.639674812395E+03   -0.63857E-05   -0.88239E-05  7234   0.214E-02
   8 F= -.63967481E+03 E0= -.63961055E+03  d E =-.212859E+00
 trial-energy change:   -0.212859  1 .order   -0.209036   -0.324635   -0.093436
 step:   1.3106(harm=  1.3569)  dis= 0.05928  next Energy=  -639.691627 (dE=-0.230E+00)
 bond charge predicted
       N       E                     dE             d eps       ncg     rms          rms(c)
DAV:   1    -0.639328017842E+03    0.34679E+00   -0.14028E+01  8184   0.226E+01    0.104E+00
RMM:   2    -0.639746554804E+03   -0.41854E+00   -0.36135E+00 12997   0.475E+00    0.391E+00
RMM:   3    -0.639708125667E+03    0.38429E-01   -0.29313E-01  9891   0.185E+00    0.196E+00
RMM:   4    -0.639706791311E+03    0.13344E-02   -0.69052E-02 11648   0.729E-01    0.147E+00
RMM:   5    -0.639695942289E+03    0.10849E-01   -0.19153E-02 11506   0.400E-01    0.803E-01
RMM:   6    -0.639694286299E+03    0.16560E-02   -0.11678E-02 12246   0.192E-01    0.439E-01
RMM:   7    -0.639695047488E+03   -0.76119E-03   -0.57362E-03 12261   0.170E-01    0.674E-01
RMM:   8    -0.639692996114E+03    0.20514E-02   -0.38538E-03 11230   0.187E-01    0.305E-01
RMM:   9    -0.639692297647E+03    0.69847E-03   -0.43802E-03 12836   0.130E-01    0.817E-02
RMM:  10    -0.639692540239E+03   -0.24259E-03   -0.10032E-03 10527   0.884E-02    0.224E-01
RMM:  11    -0.639692301430E+03    0.23881E-03   -0.51323E-04 10243   0.599E-02    0.514E-02
RMM:  12    -0.639692345933E+03   -0.44502E-04   -0.41013E-04 10302   0.356E-02    0.808E-02
RMM:  13    -0.639692327777E+03    0.18155E-04   -0.13357E-04  8075   0.304E-02    0.373E-02
RMM:  14    -0.639692332018E+03   -0.42407E-05   -0.14085E-04  7659   0.225E-02    0.144E-02
RMM:  15    -0.639692332411E+03   -0.39279E-06   -0.42432E-05  5838   0.211E-02
   9 F= -.63969233E+03 E0= -.63962976E+03  d E =-.230379E+00
 curvature:  -1.16 expect dE=-0.196E+00 dE for cont linesearch -0.588E-05
 trial: gam= 0.31075 g(F)=  0.154E+00 g(S)=  0.150E-01 ort = 0.172E-02 (trialstep = 0.104E+01)
 search vector abs. value=  0.226E+00
 bond charge predicted
       N       E                     dE             d eps       ncg     rms          rms(c)
DAV:   1    -0.639110590202E+03    0.58174E+00   -0.46366E+01  8928   0.340E+01    0.169E+00
RMM:   2    -0.639900188060E+03   -0.78960E+00   -0.76028E+00 12549   0.754E+00    0.463E+00
RMM:   3    -0.639833705766E+03    0.66482E-01   -0.48471E-01 10332   0.277E+00    0.230E+00
RMM:   4    -0.639853100010E+03   -0.19394E-01   -0.20805E-01 11767   0.117E+00    0.253E+00
RMM:   5    -0.639817330052E+03    0.35770E-01   -0.42685E-02 11631   0.654E-01    0.896E-01
RMM:   6    -0.639820922844E+03   -0.35928E-02   -0.32457E-02 12279   0.422E-01    0.117E+00
RMM:   7    -0.639817023259E+03    0.38996E-02   -0.28427E-02 12286   0.418E-01    0.120E+00
RMM:   8    -0.639811622308E+03    0.54010E-02   -0.90232E-03 11430   0.284E-01    0.484E-01
RMM:   9    -0.639813297573E+03   -0.16753E-02   -0.88213E-03 12059   0.197E-01    0.675E-01
RMM:  10    -0.639811152589E+03    0.21450E-02   -0.33679E-03 10755   0.140E-01    0.113E-01
RMM:  11    -0.639811200686E+03   -0.48097E-04   -0.24883E-03 11519   0.675E-02    0.102E-01
RMM:  12    -0.639811316703E+03   -0.11602E-03   -0.67572E-04  9620   0.743E-02    0.161E-01
RMM:  13    -0.639811224232E+03    0.92471E-04   -0.61673E-04 10259   0.473E-02    0.280E-02
RMM:  14    -0.639811249022E+03   -0.24790E-04   -0.34307E-04  8972   0.281E-02    0.173E-02
RMM:  15    -0.639811252132E+03   -0.31095E-05   -0.95060E-05  7783   0.300E-02
  10 F= -.63981125E+03 E0= -.63975181E+03  d E =-.118920E+00
 trial-energy change:   -0.118920  1 .order   -0.117678   -0.175135   -0.060220
 step:   1.5303(harm=  1.5777)  dis= 0.04019  next Energy=  -639.825786 (dE=-0.133E+00)
 bond charge predicted
       N       E                     dE             d eps       ncg     rms          rms(c)
DAV:   1    -0.639657145588E+03    0.15410E+00   -0.10513E+01  8736   0.163E+01    0.810E-01
RMM:   2    -0.639842226667E+03   -0.18508E+00   -0.18009E+00 12517   0.368E+00    0.208E+00
RMM:   3    -0.639833367297E+03    0.88594E-02   -0.12589E-01 10617   0.130E+00    0.118E+00
RMM:   4    -0.639835018076E+03   -0.16508E-02   -0.44224E-02 11864   0.540E-01    0.114E+00
RMM:   5    -0.639828789466E+03    0.62286E-02   -0.94990E-03 11854   0.296E-01    0.452E-01
RMM:   6    -0.639830131183E+03   -0.13417E-02   -0.71967E-03 12018   0.199E-01    0.713E-01
RMM:   7    -0.639830548350E+03   -0.41717E-03   -0.59851E-03 11804   0.227E-01    0.784E-01
RMM:   8    -0.639827208212E+03    0.33401E-02   -0.30881E-03 10427   0.189E-01    0.144E-01
RMM:   9    -0.639827597521E+03   -0.38931E-03   -0.26587E-03 11421   0.100E-01    0.267E-01
RMM:  10    -0.639827281307E+03    0.31621E-03   -0.94380E-04 10132   0.712E-02    0.678E-02
RMM:  11    -0.639827277423E+03    0.38832E-05   -0.64947E-04  9956   0.365E-02    0.358E-02
RMM:  12    -0.639827318952E+03   -0.41529E-04   -0.17883E-04  8038   0.413E-02    0.867E-02
RMM:  13    -0.639827292324E+03    0.26628E-04   -0.18386E-04  8533   0.289E-02    0.139E-02
RMM:  14    -0.639827301042E+03   -0.87181E-05   -0.11080E-04  7075   0.183E-02    0.894E-03
RMM:  15    -0.639827301482E+03   -0.43941E-06   -0.28431E-05  5577   0.185E-02
  11 F= -.63982730E+03 E0= -.63976920E+03  d E =-.134969E+00
 curvature:  -1.05 expect dE=-0.959E-01 dE for cont linesearch -0.880E-04
 trial: gam= 0.49663 g(F)=  0.723E-01 g(S)=  0.194E-01 ort = 0.436E-02 (trialstep = 0.113E+01)
 search vector abs. value=  0.152E+00
 bond charge predicted
       N       E                     dE             d eps       ncg     rms          rms(c)
DAV:   1    -0.638983808259E+03    0.84349E+00   -0.42370E+01  9000   0.380E+01    0.191E+00
RMM:   2    -0.640234740490E+03   -0.12509E+01   -0.10068E+01 12697   0.791E+00    0.763E+00
RMM:   3    -0.639927610683E+03    0.30713E+00   -0.68431E-01  9667   0.317E+00    0.290E+00
RMM:   4    -0.639937655700E+03   -0.10045E-01   -0.26549E-01 11614   0.127E+00    0.251E+00
RMM:   5    -0.639903030525E+03    0.34625E-01   -0.56697E-02 11415   0.700E-01    0.113E+00
RMM:   6    -0.639899345682E+03    0.36848E-02   -0.33186E-02 12631   0.360E-01    0.756E-01
RMM:   7    -0.639899085812E+03    0.25987E-03   -0.26953E-02 12430   0.348E-01    0.100E+00
RMM:   8    -0.639896806987E+03    0.22788E-02   -0.10095E-02 10729   0.338E-01    0.832E-01
RMM:   9    -0.639895288689E+03    0.15183E-02   -0.86543E-03 12391   0.229E-01    0.646E-01
RMM:  10    -0.639893552480E+03    0.17362E-02   -0.38253E-03 11556   0.146E-01    0.160E-01
RMM:  11    -0.639893473469E+03    0.79011E-04   -0.23543E-03 12035   0.801E-02    0.970E-02
RMM:  12    -0.639893651586E+03   -0.17812E-03   -0.85613E-04 10822   0.734E-02    0.187E-01
RMM:  13    -0.639893512931E+03    0.13866E-03   -0.57261E-04 10300   0.552E-02    0.448E-02
RMM:  14    -0.639893535164E+03   -0.22233E-04   -0.38400E-04  9312   0.301E-02    0.196E-02
RMM:  15    -0.639893545225E+03   -0.10060E-04   -0.10440E-04  8097   0.280E-02    0.110E-02
RMM:  16    -0.639893558554E+03   -0.13329E-04   -0.13164E-04  6864   0.206E-02    0.539E-03
WARNING in EDDRMM: call to ZHEGV failed, returncode =   6  3     11
RMM:  17    -0.639893561228E+03   -0.26744E-05   -0.38204E-05  5999   0.182E-02
  12 F= -.63989356E+03 E0= -.63983804E+03  d E =-.662597E-01
 trial-energy change:   -0.066260  1 .order   -0.065251   -0.106439   -0.024063
 step:   1.4373(harm=  1.4656)  dis= 0.04460  next Energy=  -639.896795 (dE=-0.695E-01)
 bond charge predicted
       N       E                     dE             d eps       ncg     rms          rms(c)
DAV:   1    -0.639820327884E+03    0.73231E-01   -0.29084E+00  8424   0.102E+01    0.500E-01
RMM:   2    -0.639907809789E+03   -0.87482E-01   -0.78178E-01 12878   0.226E+00    0.158E+00
RMM:   3    -0.639900059118E+03    0.77507E-02   -0.62501E-02  9790   0.845E-01    0.848E-01
RMM:   4    -0.639900564870E+03   -0.50575E-03   -0.16200E-02 11528   0.329E-01    0.721E-01
RMM:   5    -0.639897761077E+03    0.28038E-02   -0.39026E-03 10784   0.195E-01    0.349E-01
RMM:   6    -0.639897537959E+03    0.22312E-03   -0.27926E-03 10859   0.101E-01    0.239E-01
RMM:   7    -0.639897956470E+03   -0.41851E-03   -0.17711E-03 11737   0.101E-01    0.411E-01
RMM:   8    -0.639897139514E+03    0.81696E-03   -0.97400E-04  9982   0.109E-01    0.128E-01
RMM:   9    -0.639897166816E+03   -0.27302E-04   -0.84053E-04 11429   0.670E-02    0.158E-01
RMM:  10    -0.639897052715E+03    0.11410E-03   -0.27514E-04  8464   0.503E-02    0.473E-02
RMM:  11    -0.639897050948E+03    0.17666E-05   -0.21482E-04  8540   0.253E-02    0.181E-02
RMM:  12    -0.639897052827E+03   -0.18788E-05   -0.68345E-05  6204   0.226E-02
  13 F= -.63989705E+03 E0= -.63984217E+03  d E =-.697513E-01
 curvature:  -1.18 expect dE=-0.782E-01 dE for cont linesearch -0.612E-06
 trial: gam= 0.70446 g(F)=  0.432E-01 g(S)=  0.232E-01 ort = 0.281E-03 (trialstep = 0.119E+01)
 search vector abs. value=  0.142E+00
 bond charge predicted
       N       E                     dE             d eps       ncg     rms          rms(c)
DAV:   1    -0.638796470619E+03    0.11006E+01   -0.48039E+01  9624   0.421E+01    0.288E+00
RMM:   2    -0.640768136720E+03   -0.19717E+01   -0.13135E+01 12933   0.832E+00    0.113E+01
RMM:   3    -0.640012038085E+03    0.75610E+00   -0.10792E+00  9564   0.411E+00    0.408E+00
RMM:   4    -0.640004822219E+03    0.72159E-02   -0.35199E-01 12075   0.157E+00    0.319E+00
RMM:   5    -0.639963568535E+03    0.41254E-01   -0.87657E-02 11351   0.850E-01    0.211E+00
RMM:   6    -0.639947037179E+03    0.16531E-01   -0.48674E-02 12496   0.499E-01    0.961E-01
RMM:   7    -0.639958480548E+03   -0.11443E-01   -0.37979E-02 12076   0.464E-01    0.184E+00
RMM:   8    -0.639940382808E+03    0.18098E-01   -0.16212E-02 10806   0.466E-01    0.380E-01
RMM:   9    -0.639940432325E+03   -0.49517E-04   -0.13748E-02 13733   0.191E-01    0.318E-01
RMM:  10    -0.639940836291E+03   -0.40397E-03   -0.36090E-03 10685   0.195E-01    0.393E-01
RMM:  11    -0.639940202263E+03    0.63403E-03   -0.30100E-03 12155   0.104E-01    0.100E-01
RMM:  12    -0.639940368283E+03   -0.16602E-03   -0.12361E-03 11968   0.743E-02    0.159E-01
RMM:  13    -0.639940298724E+03    0.69558E-04   -0.67488E-04 12046   0.585E-02    0.514E-02
RMM:  14    -0.639940354443E+03   -0.55718E-04   -0.54640E-04 11760   0.406E-02    0.358E-02
RMM:  15    -0.639940357517E+03   -0.30741E-05   -0.19830E-04 10507   0.438E-02    0.138E-02
RMM:  16    -0.639940376867E+03   -0.19350E-04   -0.23946E-04  9636   0.253E-02    0.948E-03
RMM:  17    -0.639940380940E+03   -0.40736E-05   -0.79297E-05  8102   0.245E-02
  14 F= -.63994038E+03 E0= -.63988798E+03  d E =-.433281E-01
 trial-energy change:   -0.043328  1 .order   -0.042063   -0.079621   -0.004505
 step:   1.2596(harm=  1.2665)  dis= 0.04220  next Energy=  -639.940503 (dE=-0.435E-01)
 bond charge predicted
       N       E                     dE             d eps       ncg     rms          rms(c)
DAV:   1    -0.639936302248E+03    0.40746E-02   -0.13231E-01  9624   0.231E+00    0.158E-01
RMM:   2    -0.639942539069E+03   -0.62368E-02   -0.45444E-02 12883   0.524E-01    0.546E-01
RMM:   3    -0.639940665016E+03    0.18741E-02   -0.47322E-03  8841   0.234E-01    0.176E-01
RMM:   4    -0.639940780613E+03   -0.11560E-03   -0.10582E-03 10077   0.849E-02    0.205E-01
RMM:   5    -0.639940576267E+03    0.20435E-03   -0.21584E-04  7577   0.511E-02    0.724E-02
RMM:   6    -0.639940580548E+03   -0.42813E-05   -0.17948E-04  7269   0.298E-02    0.678E-02
RMM:   7    -0.639940598301E+03   -0.17753E-04   -0.13383E-04  8531   0.327E-02    0.963E-02
RMM:   8    -0.639940553791E+03    0.44510E-04   -0.52512E-05  5863   0.293E-02    0.241E-02
RMM:   9    -0.639940556087E+03   -0.22957E-05   -0.42667E-05  5654   0.196E-02
  15 F= -.63994056E+03 E0= -.63988832E+03  d E =-.435033E-01
 curvature:  -1.34 expect dE=-0.713E-01 dE for cont linesearch -0.438E-05
 trial: gam= 0.73796 g(F)=  0.297E-01 g(S)=  0.235E-01 ort = 0.682E-03 (trialstep = 0.121E+01)
 search vector abs. value=  0.132E+00
 bond charge predicted
       N       E                     dE             d eps       ncg     rms          rms(c)
DAV:   1    -0.638993725638E+03    0.94683E+00   -0.44729E+01 10920   0.415E+01    0.378E+00
RMM:   2    -0.642058319536E+03   -0.30646E+01   -0.13701E+01 11631   0.105E+01    0.168E+01
RMM:   3    -0.640104106917E+03    0.19542E+01   -0.16845E+00 10023   0.499E+00    0.562E+00
RMM:   4    -0.639998390128E+03    0.10572E+00   -0.58354E-01 12050   0.187E+00    0.226E+00
RMM:   5    -0.639967747626E+03    0.30643E-01   -0.11614E-01 12242   0.874E-01    0.118E+00
RMM:   6    -0.639969325729E+03   -0.15781E-02   -0.36852E-02 12168   0.526E-01    0.139E+00
RMM:   7    -0.639959503990E+03    0.98217E-02   -0.35998E-02 11853   0.520E-01    0.655E-01
RMM:   8    -0.639962619443E+03   -0.31155E-02   -0.14920E-02 12100   0.379E-01    0.115E+00
RMM:   9    -0.639956835953E+03    0.57835E-02   -0.79102E-03 12933   0.252E-01    0.364E-01
RMM:  10    -0.639956921168E+03   -0.85214E-04   -0.50580E-03 12317   0.154E-01    0.282E-01
RMM:  11    -0.639956690326E+03    0.23084E-03   -0.21048E-03 12970   0.916E-02    0.942E-02
RMM:  12    -0.639956957563E+03   -0.26724E-03   -0.11118E-03 12606   0.769E-02    0.170E-01
RMM:  13    -0.639956922481E+03    0.35082E-04   -0.68048E-04 12087   0.672E-02    0.688E-02
RMM:  14    -0.639957007458E+03   -0.84976E-04   -0.60894E-04 12069   0.453E-02    0.364E-02
RMM:  15    -0.639957042264E+03   -0.34806E-04   -0.27738E-04 11531   0.413E-02    0.208E-02
RMM:  16    -0.639957066673E+03   -0.24409E-04   -0.20986E-04 10369   0.310E-02    0.114E-02
RMM:  17    -0.639957076546E+03   -0.98734E-05   -0.11103E-04  8893   0.253E-02    0.792E-03
WARNING in EDDRMM: call to ZHEGV failed, returncode =   6  3      7
WARNING in EDDRMM: call to ZHEGV failed, returncode =   8  4      7
RMM:  18    -0.639957083322E+03   -0.67755E-05   -0.76819E-05  8102   0.214E-02
  16 F= -.63995708E+03 E0= -.63990764E+03  d E =-.165272E-01
 trial-energy change:   -0.016527  1 .order   -0.015493   -0.064926    0.033941
 step:   0.8099(harm=  0.7932)  dis= 0.02654  next Energy=  -639.962637 (dE=-0.221E-01)
 bond charge predicted
       N       E                     dE             d eps       ncg     rms          rms(c)
DAV:   1    -0.639841062653E+03    0.11601E+00   -0.47230E+00 10560   0.137E+01    0.125E+00
RMM:   2    -0.640167597736E+03   -0.32654E+00   -0.15253E+00 11942   0.339E+00    0.541E+00
RMM:   3    -0.639978944294E+03    0.18865E+00   -0.20340E-01 10054   0.167E+00    0.182E+00
RMM:   4    -0.639967747222E+03    0.11197E-01   -0.52770E-02 12078   0.604E-01    0.854E-01
RMM:   5    -0.639967233074E+03    0.51415E-03   -0.14360E-02 11965   0.305E-01    0.922E-01
RMM:   6    -0.639963404249E+03    0.38288E-02   -0.39276E-03 10907   0.205E-01    0.312E-01
RMM:   7    -0.639965465776E+03   -0.20615E-02   -0.48047E-03 11559   0.183E-01    0.723E-01
RMM:   8    -0.639962723910E+03    0.27419E-02   -0.23631E-03 10824   0.170E-01    0.150E-01
RMM:   9    -0.639962879689E+03   -0.15578E-03   -0.16469E-03 12612   0.927E-02    0.227E-01
RMM:  10    -0.639962627159E+03    0.25253E-03   -0.54796E-04 10493   0.684E-02    0.586E-02
RMM:  11    -0.639962633926E+03   -0.67673E-05   -0.36201E-04 10510   0.364E-02    0.412E-02
RMM:  12    -0.639962640602E+03   -0.66757E-05   -0.10115E-04  7740   0.299E-02    0.444E-02
RMM:  13    -0.639962637536E+03    0.30659E-05   -0.93151E-05  7636   0.231E-02
  17 F= -.63996264E+03 E0= -.63991230E+03  d E =-.220814E-01
 curvature:  -0.97 expect dE=-0.348E-01 dE for cont linesearch -0.447E-05
 trial: gam= 0.63893 g(F)=  0.197E-01 g(S)=  0.162E-01 ort = 0.779E-03 (trialstep = 0.113E+01)
 search vector abs. value=  0.906E-01
 bond charge predicted
       N       E                     dE             d eps       ncg     rms          rms(c)
DAV:   1    -0.639364474029E+03    0.59817E+00   -0.24380E+01  8256   0.297E+01    0.191E+00
RMM:   2    -0.640260443122E+03   -0.89597E+00   -0.66504E+00 13126   0.651E+00    0.641E+00
RMM:   3    -0.639994310886E+03    0.26613E+00   -0.55028E-01  9864   0.284E+00    0.199E+00
RMM:   4    -0.640017833340E+03   -0.23522E-01   -0.16339E-01 12154   0.990E-01    0.265E+00
RMM:   5    -0.639982729133E+03    0.35104E-01   -0.31736E-02 11235   0.578E-01    0.778E-01
RMM:   6    -0.639983722463E+03   -0.99333E-03   -0.23168E-02 12891   0.298E-01    0.838E-01
RMM:   7    -0.639982468529E+03    0.12539E-02   -0.13580E-02 12469   0.291E-01    0.790E-01
RMM:   8    -0.639980338603E+03    0.21299E-02   -0.58674E-03 11174   0.268E-01    0.492E-01
RMM:   9    -0.639979212810E+03    0.11258E-02   -0.56437E-03 13609   0.154E-01    0.194E-01
RMM:  10    -0.639979512458E+03   -0.29965E-03   -0.18828E-03 11181   0.126E-01    0.286E-01
RMM:  11    -0.639979145074E+03    0.36738E-03   -0.11918E-03 11667   0.792E-02    0.596E-02
RMM:  12    -0.639979221125E+03   -0.76051E-04   -0.65696E-04 11762   0.511E-02    0.961E-02
RMM:  13    -0.639979204777E+03    0.16347E-04   -0.26469E-04 11130   0.448E-02    0.530E-02
RMM:  14    -0.639979218472E+03   -0.13695E-04   -0.25416E-04 10701   0.269E-02    0.241E-02
RMM:  15    -0.639979224020E+03   -0.55478E-05   -0.10712E-04  9182   0.283E-02    0.141E-02
RMM:  16    -0.639979227094E+03   -0.30740E-05   -0.78967E-05  7681   0.215E-02
  18 F= -.63997923E+03 E0= -.63992964E+03  d E =-.165896E-01
 trial-energy change:   -0.016590  1 .order   -0.016842   -0.041010    0.007327
 step:   0.9526(harm=  0.9572)  dis= 0.02974  next Energy=  -639.979798 (dE=-0.172E-01)
 bond charge predicted
       N       E                     dE             d eps       ncg     rms          rms(c)
DAV:   1    -0.639965612696E+03    0.13611E-01   -0.59837E-01  9024   0.465E+00    0.300E-01
RMM:   2    -0.639987789863E+03   -0.22177E-01   -0.15921E-01 13207   0.998E-01    0.103E+00
RMM:   3    -0.639980120693E+03    0.76692E-02   -0.12274E-02  9731   0.464E-01    0.316E-01
RMM:   4    -0.639980610545E+03   -0.48985E-03   -0.43408E-03 11670   0.156E-01    0.388E-01
RMM:   5    -0.639979855136E+03    0.75541E-03   -0.71942E-04  9718   0.927E-02    0.117E-01
RMM:   6    -0.639979889071E+03   -0.33935E-04   -0.47602E-04  9714   0.517E-02    0.140E-01
RMM:   7    -0.639979831204E+03    0.57867E-04   -0.34805E-04 10174   0.495E-02    0.113E-01
RMM:   8    -0.639979800703E+03    0.30501E-04   -0.13637E-04  7125   0.508E-02    0.888E-02
RMM:   9    -0.639979761925E+03    0.38778E-04   -0.13592E-04  8308   0.301E-02    0.257E-02
RMM:  10    -0.639979770869E+03   -0.89445E-05   -0.43030E-05  5383   0.251E-02
  19 F= -.63997977E+03 E0= -.63993013E+03  d E =-.171333E-01
 curvature:  -1.19 expect dE=-0.146E-01 dE for cont linesearch -0.179E-05
 trial: gam= 0.27623 g(F)=  0.113E-01 g(S)=  0.886E-03 ort = 0.369E-03 (trialstep = 0.109E+01)
 search vector abs. value=  0.193E-01
 bond charge predicted
       N       E                     dE             d eps       ncg     rms          rms(c)
DAV:   1    -0.639897998975E+03    0.81763E-01   -0.44864E+00  8064   0.115E+01    0.480E-01
RMM:   2    -0.639990775866E+03   -0.92777E-01   -0.92966E-01 12254   0.271E+00    0.894E-01
RMM:   3    -0.639992366138E+03   -0.15903E-02   -0.79042E-02 10655   0.788E-01    0.843E-01
RMM:   4    -0.639991567340E+03    0.79880E-03   -0.15733E-02 11316   0.331E-01    0.603E-01
RMM:   5    -0.639989648587E+03    0.19188E-02   -0.34008E-03 11062   0.179E-01    0.229E-01
RMM:   6    -0.639989758478E+03   -0.10989E-03   -0.23264E-03 11360   0.912E-02    0.249E-01
RMM:   7    -0.639989770858E+03   -0.12380E-04   -0.14525E-03 11318   0.100E-01    0.289E-01
RMM:   8    -0.639989391136E+03    0.37972E-03   -0.97048E-04 10341   0.983E-02    0.128E-01
RMM:   9    -0.639989308148E+03    0.82987E-04   -0.66116E-04 10998   0.534E-02    0.390E-02
RMM:  10    -0.639989349626E+03   -0.41477E-04   -0.18755E-04  7543   0.409E-02    0.106E-01
RMM:  11    -0.639989292658E+03    0.56967E-04   -0.96500E-05  6606   0.300E-02    0.206E-02
RMM:  12    -0.639989306599E+03   -0.13940E-04   -0.10936E-04  7410   0.219E-02    0.343E-02
RMM:  13    -0.639989303224E+03    0.33743E-05   -0.33503E-05  5486   0.196E-02
  20 F= -.63998930E+03 E0= -.63993977E+03  d E =-.953235E-02
 trial-energy change:   -0.009532  1 .order   -0.009371   -0.013476   -0.005267
 step:   1.6867(harm=  1.7943)  dis= 0.02123  next Energy=  -639.990759 (dE=-0.110E-01)
 bond charge predicted
       N       E                     dE             d eps       ncg     rms          rms(c)
DAV:   1    -0.639967037644E+03    0.22269E-01   -0.13533E+00  8400   0.623E+00    0.253E-01
RMM:   2    -0.639992355289E+03   -0.25318E-01   -0.25320E-01 12237   0.137E+00    0.517E-01
RMM:   3    -0.639991931756E+03    0.42353E-03   -0.17004E-02 10587   0.436E-01    0.432E-01
RMM:   4    -0.639991754016E+03    0.17774E-03   -0.51693E-03 11250   0.186E-01    0.293E-01
RMM:   5    -0.639991318929E+03    0.43509E-03   -0.10065E-03 10235   0.928E-02    0.121E-01
RMM:   6    -0.639991362206E+03   -0.43278E-04   -0.66105E-04 10132   0.517E-02    0.142E-01
RMM:   7    -0.639991346773E+03    0.15433E-04   -0.47767E-04 10797   0.579E-02    0.145E-01
RMM:   8    -0.639991259612E+03    0.87161E-04   -0.30215E-04  9539   0.554E-02    0.736E-02
RMM:   9    -0.639991229683E+03    0.29929E-04   -0.18088E-04  8843   0.318E-02    0.171E-02
RMM:  10    -0.639991233562E+03   -0.38781E-05   -0.57138E-05  5937   0.240E-02
  21 F= -.63999123E+03 E0= -.63994173E+03  d E =-.114627E-01
 curvature:  -1.37 expect dE=-0.838E-02 dE for cont linesearch -0.891E-04
 trial: gam= 0.39765 g(F)=  0.588E-02 g(S)=  0.223E-03 ort = 0.112E-02 (trialstep = 0.121E+01)
 search vector abs. value=  0.100E-01
 bond charge predicted
       N       E                     dE             d eps       ncg     rms          rms(c)
DAV:   1    -0.639947010304E+03    0.44219E-01   -0.30000E+00  8736   0.926E+00    0.361E-01
RMM:   2    -0.640002136365E+03   -0.55126E-01   -0.52501E-01 12219   0.196E+00    0.110E+00
RMM:   3    -0.639997283545E+03    0.48528E-02   -0.34877E-02 10400   0.677E-01    0.446E-01
RMM:   4    -0.639998254348E+03   -0.97080E-03   -0.11856E-02 11533   0.270E-01    0.507E-01
RMM:   5    -0.639997000718E+03    0.12536E-02   -0.21594E-03 10800   0.134E-01    0.144E-01
RMM:   6    -0.639997125432E+03   -0.12471E-03   -0.14836E-03 10557   0.759E-02    0.208E-01
RMM:   7    -0.639996969282E+03    0.15615E-03   -0.71851E-04 10713   0.698E-02    0.157E-01
RMM:   8    -0.639996982920E+03   -0.13638E-04   -0.59055E-04  9786   0.744E-02    0.172E-01
RMM:   9    -0.639996845608E+03    0.13731E-03   -0.41854E-04 10124   0.579E-02    0.872E-02
RMM:  10    -0.639996831676E+03    0.13932E-04   -0.18159E-04  7127   0.381E-02    0.554E-02
RMM:  11    -0.639996817892E+03    0.13784E-04   -0.94836E-05  6371   0.254E-02    0.191E-02
RMM:  12    -0.639996824841E+03   -0.69487E-05   -0.45322E-05  5631   0.207E-02
  22 F= -.63999682E+03 E0= -.63994716E+03  d E =-.559128E-02
 trial-energy change:   -0.005591  1 .order   -0.005401   -0.007930   -0.002871
 step:   1.7315(harm=  1.8995)  dis= 0.01850  next Energy=  -639.997455 (dE=-0.622E-02)
 bond charge predicted
       N       E                     dE             d eps       ncg     rms          rms(c)
DAV:   1    -0.639988406363E+03    0.84115E-02   -0.55191E-01  8664   0.398E+00    0.155E-01
RMM:   2    -0.639998548648E+03   -0.10142E-01   -0.97187E-02 12266   0.838E-01    0.450E-01
RMM:   3    -0.639997827805E+03    0.72084E-03   -0.64879E-03 10209   0.294E-01    0.201E-01
RMM:   4    -0.639997996745E+03   -0.16894E-03   -0.22769E-03 10998   0.115E-01    0.218E-01
RMM:   5    -0.639997773451E+03    0.22329E-03   -0.39867E-04  8845   0.613E-02    0.594E-02
RMM:   6    -0.639997797550E+03   -0.24100E-04   -0.28922E-04  8673   0.341E-02    0.928E-02
RMM:   7    -0.639997769870E+03    0.27680E-04   -0.12530E-04  7463   0.328E-02    0.628E-02
RMM:   8    -0.639997775397E+03   -0.55271E-05   -0.18411E-04  9441   0.339E-02    0.749E-02
RMM:   9    -0.639997747604E+03    0.27793E-04   -0.43535E-05  5437   0.270E-02    0.251E-02
RMM:  10    -0.639997750977E+03   -0.33732E-05   -0.32165E-05  5395   0.208E-02
  23 F= -.63999775E+03 E0= -.63994800E+03  d E =-.651742E-02
 curvature:  -1.37 expect dE=-0.449E-02 dE for cont linesearch -0.124E-03
 ZBRENT: increasing intervall
 opt :   2.7709  next Energy=  -639.997269 (dE=-0.604E-02)
 bond charge predicted
       N       E                     dE             d eps       ncg     rms          rms(c)
DAV:   1    -0.639959936893E+03    0.37811E-01   -0.22045E+00  8688   0.794E+00    0.310E-01
RMM:   2    -0.640000642511E+03   -0.40706E-01   -0.38848E-01 12240   0.168E+00    0.921E-01
RMM:   3    -0.639997304126E+03    0.33384E-02   -0.25552E-02 10375   0.577E-01    0.396E-01
RMM:   4    -0.639998026874E+03   -0.72275E-03   -0.87998E-03 11589   0.229E-01    0.446E-01
RMM:   5    -0.639997058239E+03    0.96864E-03   -0.15383E-03 10430   0.118E-01    0.118E-01
RMM:   6    -0.639997166089E+03   -0.10785E-03   -0.11420E-03 10473   0.653E-02    0.186E-01
RMM:   7    -0.639997040078E+03    0.12601E-03   -0.50651E-04 10007   0.613E-02    0.126E-01
RMM:   8    -0.639997074306E+03   -0.34228E-04   -0.49964E-04 10247   0.647E-02    0.154E-01
RMM:   9    -0.639996959736E+03    0.11457E-03   -0.26452E-04  9347   0.502E-02    0.704E-02
RMM:  10    -0.639996953788E+03    0.59480E-05   -0.14202E-04  6787   0.332E-02    0.465E-02
RMM:  11    -0.639996943641E+03    0.10147E-04   -0.71771E-05  6100   0.241E-02    0.172E-02
RMM:  12    -0.639996948809E+03   -0.51677E-05   -0.36012E-05  5507   0.182E-02
  24 F= -.63999695E+03 E0= -.63994697E+03  d E =-.571525E-02
 curvature:   5.34 expect dE= 0.524E-01 dE for cont linesearch  0.388E-02
 ZBRENT: bracketing found
 ZBRENT: interpolating
 opt :   2.0024  next Energy=  -639.997880 (dE=-0.665E-02)
 bond charge predicted
       N       E                     dE             d eps       ncg     rms          rms(c)
DAV:   1    -0.639978193139E+03    0.18751E-01   -0.12078E+00  8760   0.587E+00    0.225E-01
RMM:   2    -0.639999665657E+03   -0.21473E-01   -0.20757E-01 12171   0.123E+00    0.622E-01
RMM:   3    -0.639998202364E+03    0.14633E-02   -0.13438E-02 10250   0.421E-01    0.308E-01
RMM:   4    -0.639998420357E+03   -0.21799E-03   -0.44619E-03 11155   0.163E-01    0.306E-01
RMM:   5    -0.639997967014E+03    0.45334E-03   -0.69884E-04  9182   0.825E-02    0.839E-02
RMM:   6    -0.639997999439E+03   -0.32426E-04   -0.52907E-04 10005   0.462E-02    0.132E-01
RMM:   7    -0.639997934427E+03    0.65013E-04   -0.19581E-04  8289   0.463E-02    0.903E-02
RMM:   8    -0.639997939736E+03   -0.53091E-05   -0.33033E-04  9883   0.449E-02    0.106E-01
RMM:   9    -0.639997881511E+03    0.58226E-04   -0.75051E-05  6057   0.349E-02    0.307E-02
RMM:  10    -0.639997887353E+03   -0.58421E-05   -0.60751E-05  5667   0.238E-02
  25 F= -.63999789E+03 E0= -.63994806E+03  d E =-.665379E-02
 curvature:  -0.18 expect dE=-0.799E-03 dE for cont linesearch -0.596E-07
 trial: gam= 0.83864 g(F)=  0.373E-02 g(S)=  0.773E-03 ort = 0.581E-04 (trialstep = 0.118E+01)
 search vector abs. value=  0.117E-01
 bond charge predicted
       N       E                     dE             d eps       ncg     rms          rms(c)
DAV:   1    -0.639937426304E+03    0.60455E-01   -0.32567E+00  8400   0.999E+00    0.634E-01
RMM:   2    -0.640031930712E+03   -0.94504E-01   -0.70390E-01 13108   0.215E+00    0.205E+00
RMM:   3    -0.640002286728E+03    0.29644E-01   -0.55690E-02  9814   0.994E-01    0.660E-01
RMM:   4    -0.640005366267E+03   -0.30795E-02   -0.19893E-02 12274   0.344E-01    0.939E-01
RMM:   5    -0.640001068453E+03    0.42978E-02   -0.38354E-03 11277   0.203E-01    0.246E-01
RMM:   6    -0.640001221827E+03   -0.15337E-03   -0.27501E-03 11384   0.119E-01    0.300E-01
RMM:   7    -0.640000608893E+03    0.61293E-03   -0.19509E-03 12314   0.113E-01    0.110E-01
RMM:   8    -0.640000821837E+03   -0.21294E-03   -0.90548E-04 11740   0.896E-02    0.244E-01
RMM:   9    -0.640000512454E+03    0.30938E-03   -0.36464E-04  9832   0.669E-02    0.454E-02
RMM:  10    -0.640000553863E+03   -0.41409E-04   -0.32755E-04  9797   0.349E-02    0.838E-02
RMM:  11    -0.640000524032E+03    0.29830E-04   -0.10309E-04  7013   0.280E-02    0.251E-02
RMM:  12    -0.640000531934E+03   -0.79012E-05   -0.63976E-05  6383   0.226E-02
  26 F= -.64000053E+03 E0= -.63995051E+03  d E =-.264458E-02
 trial-energy change:   -0.002645  1 .order   -0.002631   -0.005367    0.000104
 step:   1.1578(harm=  1.1578)  dis= 0.01475  next Energy=  -640.000519 (dE=-0.263E-02)
 bond charge predicted
       N       E                     dE             d eps       ncg     rms          rms(c)
DAV:   1    -0.640000505455E+03    0.18577E-04   -0.12148E-03 10272   0.198E-01    0.190E-02
RMM:   2    -0.640000552176E+03   -0.46721E-04   -0.26969E-04 10350   0.440E-02    0.689E-02
RMM:   3    -0.640000526366E+03    0.25810E-04   -0.29451E-05  5226   0.288E-02    0.198E-02
RMM:   4    -0.640000528287E+03   -0.19209E-05   -0.12634E-05  4776   0.157E-02
  27 F= -.64000053E+03 E0= -.63995051E+03  d E =-.264093E-02
 curvature:  -1.48 expect dE=-0.873E-02 dE for cont linesearch -0.169E-04
 trial: gam= 1.19147 g(F)=  0.195E-02 g(S)=  0.393E-02 ort = 0.365E-03 (trialstep = 0.588E+00)
 search vector abs. value=  0.233E-01
 bond charge predicted
       N       E                     dE             d eps       ncg     rms          rms(c)
DAV:   1    -0.639972887105E+03    0.27639E-01   -0.16614E+00  9768   0.736E+00    0.752E-01
RMM:   2    -0.640074483751E+03   -0.10160E+00   -0.44851E-01 11908   0.192E+00    0.295E+00
RMM:   3    -0.640004964555E+03    0.69519E-01   -0.56951E-02  9974   0.978E-01    0.800E-01
RMM:   4    -0.640004227685E+03    0.73687E-03   -0.18792E-02 12025   0.340E-01    0.547E-01
RMM:   5    -0.640002868454E+03    0.13592E-02   -0.38312E-03 11642   0.174E-01    0.368E-01
RMM:   6    -0.640002402421E+03    0.46603E-03   -0.13351E-03 10764   0.112E-01    0.227E-01
RMM:   7    -0.640002941773E+03   -0.53935E-03   -0.15865E-03 11237   0.109E-01    0.425E-01
RMM:   8    -0.640002055406E+03    0.88637E-03   -0.81024E-04 10534   0.106E-01    0.977E-02
RMM:   9    -0.640002102618E+03   -0.47212E-04   -0.61231E-04 12032   0.561E-02    0.127E-01
RMM:  10    -0.640002030885E+03    0.71733E-04   -0.17495E-04  8473   0.453E-02    0.370E-02
RMM:  11    -0.640002039158E+03   -0.82729E-05   -0.12662E-04  8016   0.224E-02    0.254E-02
RMM:  12    -0.640002043224E+03   -0.40665E-05   -0.38454E-05  5636   0.237E-02
  28 F= -.64000204E+03 E0= -.63995212E+03  d E =-.151494E-02
 trial-energy change:   -0.001515  1 .order   -0.001701   -0.003714    0.000313
 step:   0.5277(harm=  0.5428)  dis= 0.00964  next Energy=  -640.002060 (dE=-0.153E-02)
 bond charge predicted
       N       E                     dE             d eps       ncg     rms          rms(c)
DAV:   1    -0.640001759969E+03    0.27919E-03   -0.17627E-02 10080   0.758E-01    0.767E-02
RMM:   2    -0.640002770364E+03   -0.10104E-02   -0.46053E-03 12134   0.193E-01    0.294E-01
RMM:   3    -0.640002102907E+03    0.66746E-03   -0.59540E-04  8520   0.106E-01    0.787E-02
RMM:   4    -0.640002103562E+03   -0.65462E-06   -0.20607E-04 10184   0.413E-02    0.655E-02
RMM:   5    -0.640002084591E+03    0.18971E-04   -0.39946E-05  5800   0.239E-02    0.394E-02
RMM:   6    -0.640002079746E+03    0.48446E-05   -0.16398E-05  4856   0.210E-02
  29 F= -.64000208E+03 E0= -.63995216E+03  d E =-.155146E-02
 curvature:  -0.89 expect dE=-0.260E-02 dE for cont linesearch -0.456E-06
 trial: gam= 0.47572 g(F)=  0.200E-02 g(S)=  0.910E-03 ort = 0.109E-03 (trialstep = 0.576E+00)
 search vector abs. value=  0.829E-02
 bond charge predicted
       N       E                     dE             d eps       ncg     rms          rms(c)
DAV:   1    -0.639990854199E+03    0.11230E-01   -0.57241E-01  8256   0.425E+00    0.197E-01
RMM:   2    -0.640005467024E+03   -0.14613E-01   -0.12912E-01 12496   0.935E-01    0.694E-01
RMM:   3    -0.640003707055E+03    0.17600E-02   -0.96561E-03  9898   0.320E-01    0.267E-01
RMM:   4    -0.640003940789E+03   -0.23373E-03   -0.25520E-03 10587   0.130E-01    0.282E-01
RMM:   5    -0.640003495444E+03    0.44534E-03   -0.52493E-04  8296   0.829E-02    0.127E-01
RMM:   6    -0.640003451749E+03    0.43695E-04   -0.37800E-04  8655   0.445E-02    0.792E-02
RMM:   7    -0.640003508353E+03   -0.56605E-04   -0.27670E-04  9471   0.440E-02    0.147E-01
RMM:   8    -0.640003393738E+03    0.11462E-03   -0.17157E-04  8460   0.454E-02    0.417E-02
RMM:   9    -0.640003394092E+03   -0.35382E-06   -0.97132E-05  7043   0.256E-02
  30 F= -.64000339E+03 E0= -.63995355E+03  d E =-.131435E-02
 trial-energy change:   -0.001314  1 .order   -0.001391   -0.001706   -0.001076
 step:   1.5607(harm=  1.5607)  dis= 0.01736  next Energy=  -640.004390 (dE=-0.231E-02)
 bond charge predicted
       N       E                     dE             d eps       ncg     rms          rms(c)
DAV:   1    -0.639966908363E+03    0.36485E-01   -0.16636E+00  8232   0.726E+00    0.319E-01
RMM:   2    -0.640005704556E+03   -0.38796E-01   -0.37764E-01 12532   0.160E+00    0.720E-01
RMM:   3    -0.640005471060E+03    0.23350E-03   -0.28027E-02 10047   0.534E-01    0.566E-01
RMM:   4    -0.640005578447E+03   -0.10739E-03   -0.69226E-03 11342   0.211E-01    0.460E-01
RMM:   5    -0.640004306605E+03    0.12718E-02   -0.14643E-03  9306   0.134E-01    0.165E-01
RMM:   6    -0.640004346871E+03   -0.40266E-04   -0.12605E-03 10406   0.659E-02    0.163E-01
RMM:   7    -0.640004338127E+03    0.87441E-05   -0.78963E-04 11399   0.690E-02    0.193E-01
RMM:   8    -0.640004180980E+03    0.15715E-03   -0.42114E-04  9574   0.708E-02    0.986E-02
RMM:   9    -0.640004125224E+03    0.55757E-04   -0.29984E-04 10257   0.394E-02    0.212E-02
RMM:  10    -0.640004121492E+03    0.37319E-05   -0.95996E-05  6525   0.229E-02
  31 F= -.64000412E+03 E0= -.63995432E+03  d E =-.204175E-02
 curvature:  -2.18 expect dE=-0.547E-02 dE for cont linesearch -0.372E-04
 trial: gam= 0.90948 g(F)=  0.180E-02 g(S)=  0.704E-03 ort =-0.376E-03 (trialstep = 0.738E+00)
 search vector abs. value=  0.868E-02
 bond charge predicted
       N       E                     dE             d eps       ncg     rms          rms(c)
DAV:   1    -0.639988484457E+03    0.15641E-01   -0.98546E-01  8448   0.526E+00    0.219E-01
RMM:   2    -0.640006857689E+03   -0.18373E-01   -0.18018E-01 12049   0.112E+00    0.532E-01
RMM:   3    -0.640005806672E+03    0.10510E-02   -0.11906E-02 10616   0.340E-01    0.307E-01
RMM:   4    -0.640005871909E+03   -0.65237E-04   -0.33434E-03 11244   0.135E-01    0.273E-01
RMM:   5    -0.640005503908E+03    0.36800E-03   -0.56897E-04  8743   0.790E-02    0.107E-01
RMM:   6    -0.640005547996E+03   -0.44088E-04   -0.50634E-04  9351   0.492E-02    0.142E-01
RMM:   7    -0.640005508822E+03    0.39173E-04   -0.34027E-04  9412   0.527E-02    0.131E-01
RMM:   8    -0.640005435888E+03    0.72935E-04   -0.22584E-04  8689   0.500E-02    0.688E-02
RMM:   9    -0.640005415235E+03    0.20653E-04   -0.14129E-04  7888   0.298E-02    0.417E-02
RMM:  10    -0.640005410524E+03    0.47114E-05   -0.44605E-05  5509   0.238E-02
  32 F= -.64000541E+03 E0= -.63995574E+03  d E =-.128903E-02
 trial-energy change:   -0.001289  1 .order   -0.001241   -0.001598   -0.000885
 step:   1.2798(harm=  1.6557)  dis= 0.01558  next Energy=  -640.005754 (dE=-0.163E-02)
 bond charge predicted
       N       E                     dE             d eps       ncg     rms          rms(c)
DAV:   1    -0.639996562587E+03    0.88526E-02   -0.52873E-01  8424   0.386E+00    0.162E-01
RMM:   2    -0.640006434534E+03   -0.98719E-02   -0.97314E-02 12094   0.826E-01    0.371E-01
RMM:   3    -0.640006045998E+03    0.38854E-03   -0.65124E-03 10470   0.253E-01    0.241E-01
RMM:   4    -0.640006079227E+03   -0.33229E-04   -0.18031E-03 10620   0.101E-01    0.211E-01
RMM:   5    -0.640005858858E+03    0.22037E-03   -0.35571E-04  8354   0.588E-02    0.763E-02
RMM:   6    -0.640005890728E+03   -0.31870E-04   -0.28410E-04  8230   0.372E-02    0.111E-01
RMM:   7    -0.640005859749E+03    0.30979E-04   -0.18935E-04  8819   0.393E-02    0.903E-02
RMM:   8    -0.640005826769E+03    0.32980E-04   -0.12313E-04  7542   0.383E-02    0.512E-02
RMM:   9    -0.640005816716E+03    0.10054E-04   -0.78446E-05  6794   0.247E-02    0.335E-02
RMM:  10    -0.640005813273E+03    0.34426E-05   -0.27710E-05  5233   0.205E-02
  33 F= -.64000581E+03 E0= -.63995621E+03  d E =-.169178E-02
 curvature:  -2.76 expect dE=-0.361E-02 dE for cont linesearch -0.408E-04
 ZBRENT: extrapolating
 opt :   1.5105  next Energy=  -640.005855 (dE=-0.173E-02)
 bond charge predicted
       N       E                     dE             d eps       ncg     rms          rms(c)
DAV:   1    -0.640004181736E+03    0.16350E-02   -0.96284E-02  8544   0.165E+00    0.690E-02
RMM:   2    -0.640005939775E+03   -0.17580E-02   -0.17449E-02 12105   0.349E-01    0.149E-01
RMM:   3    -0.640005886922E+03    0.52853E-04   -0.11612E-03  9344   0.110E-01    0.106E-01
RMM:   4    -0.640005893565E+03   -0.66430E-05   -0.35432E-04  8455   0.469E-02    0.900E-02
RMM:   5    -0.640005853372E+03    0.40192E-04   -0.67350E-05  5878   0.299E-02    0.328E-02
RMM:   6    -0.640005858167E+03   -0.47945E-05   -0.48518E-05  5669   0.210E-02
  34 F= -.64000586E+03 E0= -.63995625E+03  d E =-.173667E-02
 curvature:  -2.79 expect dE=-0.504E-02 dE for cont linesearch -0.375E-05
 trial: gam= 0.49117 g(F)=  0.152E-02 g(S)=  0.278E-03 ort =-0.108E-03 (trialstep = 0.893E+00)
 search vector abs. value=  0.379E-02
 bond charge predicted
       N       E                     dE             d eps       ncg     rms          rms(c)
DAV:   1    -0.639996796840E+03    0.90565E-02   -0.59492E-01  9456   0.414E+00    0.412E-01
RMM:   2    -0.640029463796E+03   -0.32667E-01   -0.14470E-01 12012   0.106E+00    0.166E+00
RMM:   3    -0.640007168407E+03    0.22295E-01   -0.18997E-02  9758   0.550E-01    0.358E-01
RMM:   4    -0.640007219269E+03   -0.50862E-04   -0.57836E-03 11929   0.176E-01    0.293E-01
RMM:   5    -0.640006806237E+03    0.41303E-03   -0.10808E-03 10839   0.977E-02    0.187E-01
RMM:   6    -0.640006688177E+03    0.11806E-03   -0.45571E-04  9332   0.643E-02    0.115E-01
RMM:   7    -0.640006705781E+03   -0.17605E-04   -0.53640E-04 11338   0.615E-02    0.150E-01
RMM:   8    -0.640006601319E+03    0.10446E-03   -0.19123E-04  8420   0.580E-02    0.649E-02
RMM:   9    -0.640006589034E+03    0.12285E-04   -0.15690E-04  9008   0.274E-02    0.237E-02
RMM:  10    -0.640006596994E+03   -0.79597E-05   -0.42819E-05  5507   0.236E-02
  35 F= -.64000660E+03 E0= -.63995710E+03  d E =-.738827E-03
 trial-energy change:   -0.000739  1 .order   -0.000825   -0.001562   -0.000088
 step:   0.9800(harm=  0.9464)  dis= 0.00787  next Energy=  -640.006601 (dE=-0.743E-03)
 bond charge predicted
       N       E                     dE             d eps       ncg     rms          rms(c)
DAV:   1    -0.640006514165E+03    0.74870E-04   -0.59249E-03 10248   0.409E-01    0.434E-02
RMM:   2    -0.640006910420E+03   -0.39626E-03   -0.13292E-03 10146   0.979E-02    0.208E-01
RMM:   3    -0.640006630979E+03    0.27944E-03   -0.18691E-04  6911   0.635E-02    0.784E-02
RMM:   4    -0.640006605922E+03    0.25057E-04   -0.62127E-05  5911   0.255E-02    0.255E-02
RMM:   5    -0.640006610680E+03   -0.47577E-05   -0.24622E-05  5147   0.205E-02
  36 F= -.64000661E+03 E0= -.63995716E+03  d E =-.752513E-03
 curvature:  -0.62 expect dE=-0.138E-02 dE for cont linesearch -0.170E-05
 trial: gam= 1.19222 g(F)=  0.621E-03 g(S)=  0.160E-02 ort =-0.102E-03 (trialstep = 0.468E+00)
 search vector abs. value=  0.736E-02
 bond charge predicted
       N       E                     dE             d eps       ncg     rms          rms(c)
DAV:   1    -0.640001844149E+03    0.47618E-02   -0.31913E-01  9264   0.310E+00    0.277E-01
RMM:   2    -0.640016678437E+03   -0.14834E-01   -0.76598E-02 12324   0.779E-01    0.106E+00
RMM:   3    -0.640007914121E+03    0.87643E-02   -0.94040E-03  9745   0.371E-01    0.300E-01
RMM:   4    -0.640007890713E+03    0.23408E-04   -0.28084E-03 11740   0.127E-01    0.239E-01
RMM:   5    -0.640007609597E+03    0.28112E-03   -0.55770E-04 10486   0.720E-02    0.117E-01
RMM:   6    -0.640007594100E+03    0.15497E-04   -0.26306E-04  8819   0.486E-02    0.112E-01
RMM:   7    -0.640007585029E+03    0.90707E-05   -0.31789E-04 10566   0.480E-02    0.120E-01
RMM:   8    -0.640007523130E+03    0.61899E-04   -0.99655E-05  6727   0.460E-02    0.567E-02
RMM:   9    -0.640007508931E+03    0.14199E-04   -0.91799E-05  7251   0.235E-02    0.265E-02
RMM:  10    -0.640007509935E+03   -0.10042E-05   -0.26876E-05  5210   0.221E-02
  37 F= -.64000751E+03 E0= -.63995800E+03  d E =-.899255E-03
 trial-energy change:   -0.000899  1 .order   -0.000757   -0.000983   -0.000532
 step:   0.6254(harm=  1.0202)  dis= 0.00678  next Energy=  -640.007604 (dE=-0.994E-03)
 bond charge predicted
       N       E                     dE             d eps       ncg     rms          rms(c)
DAV:   1    -0.640007100172E+03    0.40876E-03   -0.36565E-02  9960   0.104E+00    0.962E-02
RMM:   2    -0.640008824699E+03   -0.17245E-02   -0.82228E-03 11764   0.248E-01    0.374E-01
RMM:   3    -0.640007704451E+03    0.11202E-02   -0.94839E-04  8285   0.130E-01    0.101E-01
RMM:   4    -0.640007704217E+03    0.23478E-06   -0.35246E-04  9482   0.474E-02    0.800E-02
RMM:   5    -0.640007675736E+03    0.28480E-04   -0.60381E-05  5720   0.272E-02    0.465E-02
RMM:   6    -0.640007669353E+03    0.63837E-05   -0.31189E-05  5260   0.229E-02
  38 F= -.64000767E+03 E0= -.63995819E+03  d E =-.105867E-02
 curvature:  -0.87 expect dE=-0.909E-03 dE for cont linesearch -0.876E-04
 ZBRENT: increasing intervall
 opt :   0.9392  next Energy=  -640.007853 (dE=-0.124E-02)
 bond charge predicted
       N       E                     dE             d eps       ncg     rms          rms(c)
DAV:   1    -0.640005286199E+03    0.23895E-02   -0.14218E-01  9288   0.207E+00    0.195E-01
RMM:   2    -0.640012679974E+03   -0.73938E-02   -0.35262E-02 12020   0.526E-01    0.796E-01
RMM:   3    -0.640008074109E+03    0.46059E-02   -0.44452E-03  9377   0.256E-01    0.258E-01
RMM:   4    -0.640007915326E+03    0.15878E-03   -0.13522E-03 10765   0.924E-02    0.141E-01
RMM:   5    -0.640007886177E+03    0.29149E-04   -0.32020E-04  9296   0.532E-02    0.137E-01
RMM:   6    -0.640007790011E+03    0.96166E-04   -0.11476E-04  6655   0.410E-02    0.503E-02
RMM:   7    -0.640007850796E+03   -0.60784E-04   -0.18271E-04  9491   0.387E-02    0.124E-01
RMM:   8    -0.640007768995E+03    0.81801E-04   -0.70934E-05  6240   0.371E-02    0.234E-02
RMM:   9    -0.640007776685E+03   -0.76895E-05   -0.53250E-05  5648   0.222E-02
  39 F= -.64000778E+03 E0= -.63995829E+03  d E =-.116600E-02
 curvature:  -1.83 expect dE=-0.216E-02 dE for cont linesearch -0.929E-06
 trial: gam= 0.54849 g(F)=  0.105E-02 g(S)=  0.132E-03 ort =-0.612E-04 (trialstep = 0.563E+00)
 search vector abs. value=  0.333E-02
 bond charge predicted
       N       E                     dE             d eps       ncg     rms          rms(c)
DAV:   1    -0.640003772079E+03    0.39969E-02   -0.22489E-01  8616   0.274E+00    0.110E-01
RMM:   2    -0.640008555997E+03   -0.47839E-02   -0.46100E-02 12768   0.525E-01    0.242E-01
RMM:   3    -0.640008378020E+03    0.17798E-03   -0.26184E-03  9015   0.217E-01    0.166E-01
RMM:   4    -0.640008504670E+03   -0.12665E-03   -0.11407E-03 10230   0.800E-02    0.193E-01
RMM:   5    -0.640008315337E+03    0.18933E-03   -0.18217E-04  7231   0.488E-02    0.545E-02
RMM:   6    -0.640008314203E+03    0.11337E-05   -0.13893E-04  6959   0.248E-02    0.432E-02
RMM:   7    -0.640008298310E+03    0.15893E-04   -0.13080E-04  9377   0.276E-02    0.262E-02
RMM:   8    -0.640008304660E+03   -0.63497E-05   -0.35989E-05  5422   0.242E-02
  40 F= -.64000830E+03 E0= -.63995885E+03  d E =-.527975E-03
 trial-energy change:   -0.000528  1 .order   -0.000549   -0.000647   -0.000451
 step:   1.8543(harm=  1.8543)  dis= 0.01293  next Energy=  -640.008843 (dE=-0.107E-02)
 bond charge predicted
       N       E                     dE             d eps       ncg     rms          rms(c)
DAV:   1    -0.639982563404E+03    0.25735E-01   -0.11619E+00  8424   0.628E+00    0.258E-01
RMM:   2    -0.640009486041E+03   -0.26923E-01   -0.26057E-01 12855   0.126E+00    0.555E-01
RMM:   3    -0.640009250258E+03    0.23578E-03   -0.17885E-02  9649   0.491E-01    0.422E-01
RMM:   4    -0.640009706315E+03   -0.45606E-03   -0.51988E-03 11566   0.172E-01    0.436E-01
RMM:   5    -0.640008698278E+03    0.10080E-02   -0.99788E-04  9190   0.106E-01    0.120E-01
RMM:   6    -0.640008709994E+03   -0.11716E-04   -0.78816E-04  9718   0.507E-02    0.104E-01
RMM:   7    -0.640008618030E+03    0.91964E-04   -0.62557E-04 11940   0.518E-02    0.642E-02
RMM:   8    -0.640008667058E+03   -0.49028E-04   -0.18108E-04  8380   0.515E-02    0.121E-01
RMM:   9    -0.640008601451E+03    0.65608E-04   -0.10077E-04  7349   0.328E-02    0.266E-02
RMM:  10    -0.640008613677E+03   -0.12226E-04   -0.60457E-05  5850   0.232E-02    0.566E-02
RMM:  11    -0.640008598761E+03    0.14916E-04   -0.33477E-05  5351   0.226E-02    0.111E-02
RMM:  12    -0.640008601451E+03   -0.26894E-05   -0.33012E-05  5350   0.146E-02
  41 F= -.64000860E+03 E0= -.63995919E+03  d E =-.824766E-03
 curvature:  -2.69 expect dE=-0.405E-02 dE for cont linesearch -0.876E-04
 ZBRENT: interpolating
 opt :   1.4778  next Energy=  -640.008663 (dE=-0.887E-03)
 bond charge predicted
       N       E                     dE             d eps       ncg     rms          rms(c)
DAV:   1    -0.640006641864E+03    0.19569E-02   -0.10065E-01  8616   0.183E+00    0.745E-02
RMM:   2    -0.640008779622E+03   -0.21378E-02   -0.20577E-02 12875   0.351E-01    0.165E-01
RMM:   3    -0.640008692926E+03    0.86695E-04   -0.11500E-03  8539   0.148E-01    0.113E-01
RMM:   4    -0.640008741055E+03   -0.48128E-04   -0.47282E-04  9069   0.558E-02    0.127E-01
RMM:   5    -0.640008657358E+03    0.83697E-04   -0.67980E-05  5779   0.350E-02    0.405E-02
RMM:   6    -0.640008652966E+03    0.43913E-05   -0.38457E-05  5420   0.203E-02
  42 F= -.64000865E+03 E0= -.63995921E+03  d E =-.876282E-03
 curvature:  -1.90 expect dE=-0.277E-02 dE for cont linesearch -0.548E-05
 trial: gam= 0.96207 g(F)=  0.555E-03 g(S)=  0.903E-03 ort = 0.980E-04 (trialstep = 0.525E+00)
 search vector abs. value=  0.473E-02
 bond charge predicted
       N       E                     dE             d eps       ncg     rms          rms(c)
DAV:   1    -0.640004734493E+03    0.39229E-02   -0.28109E-01 10584   0.322E+00    0.384E-01
RMM:   2    -0.640028411921E+03   -0.23677E-01   -0.81163E-02 11198   0.864E-01    0.152E+00
RMM:   3    -0.640009472156E+03    0.18940E-01   -0.13082E-02  9876   0.478E-01    0.344E-01
RMM:   4    -0.640009372409E+03    0.99747E-04   -0.35842E-03 11841   0.146E-01    0.260E-01
RMM:   5    -0.640009091327E+03    0.28108E-03   -0.76122E-04 10506   0.869E-02    0.190E-01
RMM:   6    -0.640008958698E+03    0.13263E-03   -0.32531E-04  8553   0.646E-02    0.115E-01
RMM:   7    -0.640009044930E+03   -0.86232E-04   -0.35440E-04 10185   0.552E-02    0.178E-01
RMM:   8    -0.640008892027E+03    0.15290E-03   -0.14875E-04  7519   0.528E-02    0.486E-02
RMM:   9    -0.640008890638E+03    0.13893E-05   -0.11729E-04  8016   0.265E-02    0.426E-02
RMM:  10    -0.640008884502E+03    0.61351E-05   -0.27671E-05  5210   0.227E-02
  43 F= -.64000888E+03 E0= -.63995951E+03  d E =-.231536E-03
 trial-energy change:   -0.000232  1 .order   -0.000347   -0.000815    0.000122
 step:   0.3792(harm=  0.4568)  dis= 0.00262  next Energy=  -640.008904 (dE=-0.251E-03)
 bond charge predicted
       N       E                     dE             d eps       ncg     rms          rms(c)
DAV:   1    -0.640008623774E+03    0.26686E-03   -0.22004E-02 10968   0.894E-01    0.106E-01
RMM:   2    -0.640010425749E+03   -0.18020E-02   -0.59642E-03 11508   0.232E-01    0.431E-01
RMM:   3    -0.640008970674E+03    0.14551E-02   -0.94412E-04  8769   0.138E-01    0.108E-01
RMM:   4    -0.640008946737E+03    0.23937E-04   -0.28745E-04 10417   0.474E-02    0.686E-02
RMM:   5    -0.640008938012E+03    0.87255E-05   -0.62947E-05  6039   0.307E-02
  44 F= -.64000894E+03 E0= -.63995954E+03  d E =-.285046E-03
 curvature:   0.20 expect dE= 0.190E-03 dE for cont linesearch  0.121E-06
 trial: gam= 0.77501 g(F)=  0.437E-03 g(S)=  0.507E-03 ort =-0.533E-04 (trialstep = 0.496E+00)
 search vector abs. value=  0.370E-02
 bond charge predicted
       N       E                     dE             d eps       ncg     rms          rms(c)
DAV:   1    -0.640004924043E+03    0.40227E-02   -0.19840E-01  8664   0.263E+00    0.107E-01
RMM:   2    -0.640009304756E+03   -0.43807E-02   -0.43445E-02 12716   0.512E-01    0.200E-01
RMM:   3    -0.640009293752E+03    0.11003E-04   -0.23740E-03  9071   0.202E-01    0.193E-01
RMM:   4    -0.640009357080E+03   -0.63328E-04   -0.10085E-03  9991   0.823E-02    0.177E-01
RMM:   5    -0.640009177497E+03    0.17958E-03   -0.15996E-04  6851   0.488E-02    0.477E-02
RMM:   6    -0.640009179986E+03   -0.24891E-05   -0.12247E-04  6991   0.245E-02    0.433E-02
RMM:   7    -0.640009165486E+03    0.14500E-04   -0.66286E-05  7060   0.241E-02    0.231E-02
RMM:   8    -0.640009169034E+03   -0.35478E-05   -0.51246E-05  6251   0.218E-02
  45 F= -.64000917E+03 E0= -.63995972E+03  d E =-.231022E-03
 trial-energy change:   -0.000231  1 .order   -0.000322   -0.000448   -0.000196
 step:   0.8838(harm=  0.8838)  dis= 0.00482  next Energy=  -640.009337 (dE=-0.399E-03)
 bond charge predicted
       N       E                     dE             d eps       ncg     rms          rms(c)
DAV:   1    -0.640006634556E+03    0.25309E-02   -0.12140E-01  8736   0.205E+00    0.797E-02
RMM:   2    -0.640009220749E+03   -0.25862E-02   -0.26030E-02 12720   0.392E-01    0.140E-01
RMM:   3    -0.640009259806E+03   -0.39056E-04   -0.13571E-03  8765   0.158E-01    0.150E-01
RMM:   4    -0.640009259852E+03   -0.46675E-07   -0.64636E-04  9683   0.621E-02    0.102E-01
RMM:   5    -0.640009194088E+03    0.65765E-04   -0.10717E-04  6551   0.361E-02    0.303E-02
RMM:   6    -0.640009201862E+03   -0.77742E-05   -0.76578E-05  6290   0.208E-02
  46 F= -.64000920E+03 E0= -.63995980E+03  d E =-.263850E-03
 curvature:  -1.81 expect dE=-0.708E-03 dE for cont linesearch -0.214E-04
 ZBRENT: interpolating
 opt :   0.7498  next Energy=  -640.009216 (dE=-0.278E-03)
 bond charge predicted
       N       E                     dE             d eps       ncg     rms          rms(c)
DAV:   1    -0.640008885571E+03    0.30852E-03   -0.14738E-02  9192   0.717E-01    0.354E-02
RMM:   2    -0.640009256235E+03   -0.37066E-03   -0.32830E-03 12329   0.140E-01    0.117E-01
RMM:   3    -0.640009211310E+03    0.44925E-04   -0.20102E-04  6950   0.673E-02    0.576E-02
RMM:   4    -0.640009207358E+03    0.39519E-05   -0.58902E-05  5698   0.246E-02
  47 F= -.64000921E+03 E0= -.63995974E+03  d E =-.269346E-03
 curvature:  -1.19 expect dE=-0.373E-03 dE for cont linesearch -0.220E-04
 ZBRENT: interpolating
 opt :   0.8243  next Energy=  -640.009208 (dE=-0.270E-03)
 bond charge predicted
       N       E                     dE             d eps       ncg     rms          rms(c)
DAV:   1    -0.640009114665E+03    0.96644E-04   -0.44754E-03 10536   0.400E-01    0.253E-02
RMM:   2    -0.640009318337E+03   -0.20367E-03   -0.97627E-04 10779   0.780E-02    0.152E-01
RMM:   3    -0.640009195999E+03    0.12234E-03   -0.87513E-05  5938   0.487E-02    0.221E-02
RMM:   4    -0.640009202413E+03   -0.64139E-05   -0.26132E-05  5105   0.198E-02
  48 F= -.64000920E+03 E0= -.63995979E+03  d E =-.264401E-03
 curvature:  -0.34 expect dE=-0.150E-03 dE for cont linesearch -0.956E-05
 ZBRENT: interpolating
 opt :   0.7831  next Energy=  -640.009212 (dE=-0.274E-03)
 bond charge predicted
       N       E                     dE             d eps       ncg     rms          rms(c)
DAV:   1    -0.640009175112E+03    0.20886E-04   -0.13675E-03 10848   0.223E-01    0.139E-02
RMM:   2    -0.640009235595E+03   -0.60482E-04   -0.27249E-04  8732   0.419E-02    0.866E-02
RMM:   3    -0.640009198339E+03    0.37256E-04   -0.25484E-05  5130   0.275E-02    0.161E-02
RMM:   4    -0.640009198879E+03   -0.54017E-06   -0.75571E-06  4511   0.129E-02
  49 F= -.64000920E+03 E0= -.63995976E+03  d E =-.260867E-03
 curvature:  -0.15 expect dE=-0.512E-04 dE for cont linesearch -0.233E-05
 ZBRENT: bisectioning
 opt :   0.8037  next Energy=  -640.009204 (dE=-0.266E-03)
 bond charge predicted
       N       E                     dE             d eps       ncg     rms          rms(c)
DAV:   1    -0.640009191287E+03    0.70513E-05   -0.32696E-04 10440   0.111E-01    0.106E-02
RMM:   2    -0.640009222247E+03   -0.30960E-04   -0.69839E-05  5739   0.251E-02    0.696E-02
RMM:   3    -0.640009196847E+03    0.25400E-04   -0.16513E-05  4900   0.237E-02    0.128E-02
RMM:   4    -0.640009196545E+03    0.30149E-06   -0.40295E-06  4173   0.813E-03
  50 F= -.64000920E+03 E0= -.63995976E+03  d E =-.258534E-03
 curvature:  -0.31 expect dE=-0.952E-04 dE for cont linesearch -0.310E-05
 ZBRENT: interpolating
 opt :   0.7944  next Energy=  -640.009197 (dE=-0.259E-03)
 bond charge predicted
       N       E                     dE             d eps       ncg     rms          rms(c)
DAV:   1    -0.640009196636E+03    0.21092E-06   -0.63541E-05  9624   0.514E-02    0.846E-03
RMM:   2    -0.640009221106E+03   -0.24470E-04   -0.19256E-05  5070   0.172E-02    0.697E-02
RMM:   3    -0.640009197684E+03    0.23422E-04   -0.87738E-06  4614   0.174E-02    0.921E-03
RMM:   4    -0.640009197331E+03    0.35259E-06   -0.16579E-06  3817   0.494E-03
  51 F= -.64000920E+03 E0= -.63995976E+03  d E =-.259320E-03
 curvature:  -0.09 expect dE=-0.249E-04 dE for cont linesearch -0.130E-06
 ZBRENT: interpolating
 opt :   0.7970  next Energy=  -640.009197 (dE=-0.259E-03)
 bond charge predicted
       N       E                     dE             d eps       ncg     rms          rms(c)
DAV:   1    -0.640009196621E+03    0.10629E-05   -0.39525E-06  4968   0.160E-02    0.406E-03
RMM:   2    -0.640009200707E+03   -0.40854E-05   -0.34310E-06  3977   0.864E-03
  52 F= -.64000920E+03 E0= -.63995974E+03  d E =-.262695E-03
 curvature:  -0.06 expect dE=-0.205E-04 dE for cont linesearch -0.580E-06
 ZBRENT: interpolating
 opt :   0.7952  next Energy=  -640.009197 (dE=-0.259E-03)
 bond charge predicted
       N       E                     dE             d eps       ncg     rms          rms(c)
DAV:   1    -0.640009197384E+03   -0.76310E-06   -0.75238E-06  5208   0.228E-02    0.518E-03
RMM:   2    -0.640009205191E+03   -0.78069E-05   -0.43967E-06  3998   0.910E-03
  53 F= -.64000921E+03 E0= -.63995977E+03  d E =-.267179E-03
 curvature:  -0.00 expect dE=-0.139E-05 dE for cont linesearch -0.821E-08
 ZBRENT: bisectioning
 opt :   0.7961  next Energy=  -640.009205 (dE=-0.267E-03)
 bond charge predicted
       N       E                     dE             d eps       ncg     rms          rms(c)
DAV:   1    -0.640009197118E+03    0.26618E-06   -0.11633E-05  5328   0.251E-02    0.853E-03
RMM:   2    -0.640009219540E+03   -0.22422E-04   -0.10869E-05  4125   0.134E-02    0.673E-02
RMM:   3    -0.640009197818E+03    0.21722E-04   -0.63459E-06  3682   0.130E-02    0.138E-02
RMM:   4    -0.640009196615E+03    0.12031E-05   -0.73377E-07  2825   0.391E-03
  54 F= -.64000920E+03 E0= -.63995976E+03  d E =-.258604E-03
 curvature:  -0.04 expect dE=-0.109E-04 dE for cont linesearch -0.342E-07
 ZBRENT: interpolating
 opt :   0.7958  next Energy=  -640.009197 (dE=-0.259E-03)
 bond charge predicted
       N       E                     dE             d eps       ncg     rms          rms(c)
DAV:   1    -0.640009197297E+03    0.52158E-06   -0.31047E-07  5040   0.394E-03    0.317E-03
RMM:   2    -0.640009200817E+03   -0.35198E-05   -0.17744E-06  3058   0.564E-03
  55 F= -.64000920E+03 E0= -.63995976E+03  d E =-.262805E-03
 curvature:  -0.01 expect dE=-0.297E-05 dE for cont linesearch -0.267E-11
 trial: gam= 0.21834 g(F)=  0.252E-03 g(S)=  0.263E-04 ort = 0.962E-06 (trialstep = 0.556E+00)
 search vector abs. value=  0.455E-03
 bond charge predicted
       N       E                     dE             d eps       ncg     rms          rms(c)
DAV:   1    -0.640008786909E+03    0.41039E-03   -0.27343E-02  8448   0.890E-01    0.443E-02
RMM:   2    -0.640009377507E+03   -0.59060E-03   -0.55287E-03 12585   0.195E-01    0.112E-01
RMM:   3    -0.640009330781E+03    0.46726E-04   -0.38890E-04  7618   0.809E-02    0.613E-02
RMM:   4    -0.640009343786E+03   -0.13006E-04   -0.12564E-04  7628   0.320E-02    0.659E-02
RMM:   5    -0.640009319625E+03    0.24162E-04   -0.25914E-05  5060   0.240E-02    0.302E-02
RMM:   6    -0.640009317348E+03    0.22762E-05   -0.16541E-05  4983   0.163E-02
  56 F= -.64000932E+03 E0= -.63995987E+03  d E =-.116532E-03
 trial-energy change:   -0.000117  1 .order   -0.000117   -0.000155   -0.000078
 step:   1.1274(harm=  1.1274)  dis= 0.00161  next Energy=  -640.009358 (dE=-0.157E-03)
 bond charge predicted
       N       E                     dE             d eps       ncg     rms          rms(c)
DAV:   1    -0.640008858622E+03    0.46100E-03   -0.29050E-02  8640   0.919E-01    0.616E-02
RMM:   2    -0.640010089705E+03   -0.12311E-02   -0.61426E-03 12149   0.206E-01    0.375E-01
RMM:   3    -0.640009392856E+03    0.69685E-03   -0.52975E-04  7999   0.982E-02    0.686E-02
RMM:   4    -0.640009406631E+03   -0.13775E-04   -0.22807E-04  8383   0.387E-02    0.717E-02
RMM:   5    -0.640009385993E+03    0.20638E-04   -0.43495E-05  5433   0.254E-02    0.429E-02
RMM:   6    -0.640009376786E+03    0.92062E-05   -0.20860E-05  5058   0.199E-02
  57 F= -.64000938E+03 E0= -.63995992E+03  d E =-.175970E-03
 curvature:  -0.92 expect dE=-0.733E-04 dE for cont linesearch -0.172E-05
 ZBRENT: extrapolating
 opt :   1.2761  next Energy=  -640.009379 (dE=-0.178E-03)
 bond charge predicted
       N       E                     dE             d eps       ncg     rms          rms(c)
DAV:   1    -0.640009360815E+03    0.25177E-04   -0.20624E-03 10704   0.241E-01    0.413E-02
RMM:   2    -0.640009901226E+03   -0.54041E-03   -0.68179E-04  8667   0.797E-02    0.312E-01
RMM:   3    -0.640009390957E+03    0.51027E-03   -0.17723E-04  6806   0.638E-02    0.387E-02
RMM:   4    -0.640009382997E+03    0.79603E-05   -0.28653E-05  5190   0.189E-02
  58 F= -.64000938E+03 E0= -.63995993E+03  d E =-.182180E-03
 curvature:  -1.16 expect dE=-0.117E-03 dE for cont linesearch -0.454E-05
 ZBRENT: bracketing found
 ZBRENT: interpolating
 opt :   1.1881  next Energy=  -640.009378 (dE=-0.177E-03)
 bond charge predicted
       N       E                     dE             d eps       ncg     rms          rms(c)
DAV:   1    -0.640009374486E+03    0.16471E-04   -0.72512E-04 10896   0.148E-01    0.330E-02
RMM:   2    -0.640009719147E+03   -0.34466E-03   -0.31673E-04  7611   0.620E-02    0.258E-01
RMM:   3    -0.640009395028E+03    0.32412E-03   -0.99251E-05  6263   0.466E-02    0.489E-02
RMM:   4    -0.640009379140E+03    0.15887E-04   -0.14351E-05  4903   0.178E-02    0.111E-02
RMM:   5    -0.640009380638E+03   -0.14977E-05   -0.52904E-06  4199   0.118E-02
  59 F= -.64000938E+03 E0= -.63995992E+03  d E =-.179821E-03
 curvature:  -0.23 expect dE=-0.344E-04 dE for cont linesearch -0.286E-05
 ZBRENT: interpolating
 opt :   1.2446  next Energy=  -640.009384 (dE=-0.183E-03)
 bond charge predicted
       N       E                     dE             d eps       ncg     rms          rms(c)
DAV:   1    -0.640009376843E+03    0.22973E-05   -0.28148E-04 10800   0.930E-02    0.786E-03
RMM:   2    -0.640009394116E+03   -0.17273E-04   -0.45175E-05  5367   0.218E-02    0.535E-02
RMM:   3    -0.640009380374E+03    0.13742E-04   -0.10720E-05  4520   0.204E-02    0.645E-03
RMM:   4    -0.640009380770E+03   -0.39594E-06   -0.36807E-06  4146   0.693E-03
  60 F= -.64000938E+03 E0= -.63995992E+03  d E =-.179953E-03
 curvature:  -0.05 expect dE=-0.503E-05 dE for cont linesearch -0.567E-08
 trial: gam= 0.33819 g(F)=  0.781E-04 g(S)=  0.179E-04 ort =-0.702E-05 (trialstep = 0.694E+00)
 search vector abs. value=  0.143E-03
 bond charge predicted
       N       E                     dE             d eps       ncg     rms          rms(c)
DAV:   1    -0.640009146155E+03    0.23422E-03   -0.13201E-02  8256   0.640E-01    0.345E-02
RMM:   2    -0.640009476425E+03   -0.33027E-03   -0.30154E-03 12897   0.144E-01    0.834E-02
RMM:   3    -0.640009445993E+03    0.30432E-04   -0.23728E-04  7042   0.610E-02    0.484E-02
RMM:   4    -0.640009451548E+03   -0.55547E-05   -0.45238E-05  5638   0.251E-02
  61 F= -.64000945E+03 E0= -.63995998E+03  d E =-.707775E-04
 trial-energy change:   -0.000071  1 .order   -0.000053   -0.000065   -0.000040
 step:   1.8178(harm=  1.8178)  dis= 0.00106  next Energy=  -640.009466 (dE=-0.852E-04)
 bond charge predicted
       N       E                     dE             d eps       ncg     rms          rms(c)
DAV:   1    -0.640008746019E+03    0.69997E-03   -0.35051E-02  8424   0.103E+00    0.621E-02
RMM:   2    -0.640009667761E+03   -0.92174E-03   -0.77289E-03 13013   0.227E-01    0.181E-01
RMM:   3    -0.640009496136E+03    0.17163E-03   -0.62750E-04  8052   0.104E-01    0.935E-02
RMM:   4    -0.640009500020E+03   -0.38845E-05   -0.21938E-04  9192   0.408E-02    0.782E-02
RMM:   5    -0.640009466067E+03    0.33953E-04   -0.50931E-05  5679   0.262E-02    0.353E-02
RMM:   6    -0.640009466956E+03   -0.88879E-06   -0.32514E-05  5349   0.213E-02
  62 F= -.64000947E+03 E0= -.63996001E+03  d E =-.861859E-04
 curvature:  -1.39 expect dE=-0.876E-04 dE for cont linesearch -0.178E-05
 trial: gam= 0.80546 g(F)=  0.583E-04 g(S)=  0.475E-05 ort =-0.135E-04 (trialstep = 0.919E+00)
 search vector abs. value=  0.134E-03
 reached required accuracy - stopping structural energy minimisation
