  64  64   0   0
  0.2218804E+02  0.1124000E-08  0.1124000E-08  0.1124000E-08  0.5000000E-15
  1.000000000000000E-004
  CAR 
 HECN                                    
     14.98302381    -51.65172166  301      9.04786972      1.00000000
    -51.652  0.0000E+00  0.0000E+00
    -51.430  0.0000E+00  0.0000E+00
    -51.207  0.0000E+00  0.0000E+00
    -50.985  0.0000E+00  0.0000E+00
    -50.763  0.0000E+00  0.0000E+00
    -50.541  0.0000E+00  0.0000E+00
    -50.319  0.0000E+00  0.0000E+00
    -50.097  0.0000E+00  0.0000E+00
    -49.875  0.0000E+00  0.0000E+00
    -49.653  0.0000E+00  0.0000E+00
    -49.431  0.0000E+00  0.0000E+00
    -49.208  0.4998E-17  0.1110E-17
    -48.986  0.1236E-07  0.2745E-08
    -48.764  0.2075E-02  0.4609E-03
    -48.542  0.1275E+00  0.2878E-01
    -48.320  0.3297E+00  0.1020E+00
    -48.098  0.1449E+00  0.1342E+00
    -47.876  0.2618E-01  0.1400E+00
    -47.654  0.9856E-05  0.1400E+00
    -47.432  0.3633E-12  0.1400E+00
    -47.209  0.2771E-13  0.1400E+00
    -46.987  0.2522E-05  0.1400E+00
    -46.765  0.3099E-01  0.1469E+00
    -46.543  0.4335E+00  0.2432E+00
    -46.321  0.7573E-01  0.2600E+00
    -46.099  0.4795E-04  0.2600E+00
    -45.877  0.5858E-11  0.2600E+00
    -45.655  0.0000E+00  0.2600E+00
    -45.432  0.0000E+00  0.2600E+00
    -45.210  0.0000E+00  0.2600E+00
    -44.988  0.0000E+00  0.2600E+00
    -44.766  0.0000E+00  0.2600E+00
    -44.544  0.0000E+00  0.2600E+00
    -44.322  0.0000E+00  0.2600E+00
    -44.100  0.0000E+00  0.2600E+00
    -43.878  0.0000E+00  0.2600E+00
    -43.656  0.0000E+00  0.2600E+00
    -43.433  0.0000E+00  0.2600E+00
    -43.211  0.0000E+00  0.2600E+00
    -42.989  0.0000E+00  0.2600E+00
    -42.767  0.0000E+00  0.2600E+00
    -42.545  0.0000E+00  0.2600E+00
    -42.323  0.0000E+00  0.2600E+00
    -42.101  0.0000E+00  0.2600E+00
    -41.879  0.0000E+00  0.2600E+00
    -41.657  0.0000E+00  0.2600E+00
    -41.434  0.0000E+00  0.2600E+00
    -41.212  0.0000E+00  0.2600E+00
    -40.990  0.0000E+00  0.2600E+00
    -40.768  0.0000E+00  0.2600E+00
    -40.546  0.0000E+00  0.2600E+00
    -40.324  0.0000E+00  0.2600E+00
    -40.102  0.0000E+00  0.2600E+00
    -39.880  0.0000E+00  0.2600E+00
    -39.657  0.0000E+00  0.2600E+00
    -39.435  0.0000E+00  0.2600E+00
    -39.213  0.0000E+00  0.2600E+00
    -38.991  0.0000E+00  0.2600E+00
    -38.769  0.0000E+00  0.2600E+00
    -38.547  0.0000E+00  0.2600E+00
    -38.325  0.0000E+00  0.2600E+00
    -38.103  0.0000E+00  0.2600E+00
    -37.881  0.0000E+00  0.2600E+00
    -37.658  0.0000E+00  0.2600E+00
    -37.436  0.0000E+00  0.2600E+00
    -37.214  0.0000E+00  0.2600E+00
    -36.992  0.0000E+00  0.2600E+00
    -36.770  0.0000E+00  0.2600E+00
    -36.548  0.0000E+00  0.2600E+00
    -36.326  0.0000E+00  0.2600E+00
    -36.104  0.0000E+00  0.2600E+00
    -35.881  0.0000E+00  0.2600E+00
    -35.659  0.0000E+00  0.2600E+00
    -35.437  0.0000E+00  0.2600E+00
    -35.215  0.0000E+00  0.2600E+00
    -34.993  0.0000E+00  0.2600E+00
    -34.771  0.0000E+00  0.2600E+00
    -34.549  0.0000E+00  0.2600E+00
    -34.327  0.0000E+00  0.2600E+00
    -34.105  0.0000E+00  0.2600E+00
    -33.882  0.0000E+00  0.2600E+00
    -33.660  0.0000E+00  0.2600E+00
    -33.438  0.0000E+00  0.2600E+00
    -33.216  0.0000E+00  0.2600E+00
    -32.994  0.0000E+00  0.2600E+00
    -32.772  0.0000E+00  0.2600E+00
    -32.550  0.0000E+00  0.2600E+00
    -32.328  0.0000E+00  0.2600E+00
    -32.106  0.0000E+00  0.2600E+00
    -31.883  0.0000E+00  0.2600E+00
    -31.661  0.0000E+00  0.2600E+00
    -31.439  0.0000E+00  0.2600E+00
    -31.217  0.1400E-15  0.2600E+00
    -30.995  0.9464E-07  0.2600E+00
    -30.773  0.5335E-02  0.2612E+00
    -30.551  0.1916E+00  0.3037E+00
    -30.329  0.4880E+00  0.4121E+00
    -30.106  0.6770E+00  0.5625E+00
    -29.884  0.2584E+00  0.6199E+00
    -29.662  0.4164E-03  0.6200E+00
    -29.440  0.1910E-09  0.6200E+00
    -29.218  0.0000E+00  0.6200E+00
    -28.996  0.0000E+00  0.6200E+00
    -28.774  0.0000E+00  0.6200E+00
    -28.552  0.0000E+00  0.6200E+00
    -28.330  0.0000E+00  0.6200E+00
    -28.107  0.0000E+00  0.6200E+00
    -27.885  0.0000E+00  0.6200E+00
    -27.663  0.0000E+00  0.6200E+00
    -27.441  0.0000E+00  0.6200E+00
    -27.219  0.0000E+00  0.6200E+00
    -26.997  0.5933E-10  0.6200E+00
    -26.775  0.1637E-03  0.6200E+00
    -26.553  0.8438E-01  0.6388E+00
    -26.331  0.5074E+00  0.7515E+00
    -26.108  0.6717E+00  0.9007E+00
    -25.886  0.2743E+00  0.9616E+00
    -25.664  0.8280E-01  0.9800E+00
    -25.442  0.7230E-04  0.9800E+00
    -25.220  0.1852E-02  0.9804E+00
    -24.998  0.1838E+00  0.1021E+01
    -24.776  0.8371E+00  0.1207E+01
    -24.554  0.6367E+00  0.1349E+01
    -24.331  0.2277E+00  0.1399E+01
    -24.109  0.3763E-02  0.1400E+01
    -23.887  0.2028E-07  0.1400E+01
    -23.665  0.0000E+00  0.1400E+01
    -23.443  0.2975E-08  0.1400E+01
    -23.221  0.1246E-02  0.1400E+01
    -22.999  0.1917E+00  0.1443E+01
    -22.777  0.6881E+00  0.1596E+01
    -22.555  0.6441E+00  0.1739E+01
    -22.332  0.1217E+00  0.1766E+01
    -22.110  0.3188E+00  0.1837E+01
    -21.888  0.4134E+00  0.1928E+01
    -21.666  0.1650E+00  0.1965E+01
    -21.444  0.5708E+00  0.2092E+01
    -21.222  0.1362E+00  0.2122E+01
    -21.000  0.2282E+00  0.2173E+01
    -20.778  0.3243E-01  0.2180E+01
    -20.556  0.3690E-05  0.2180E+01
    -20.333  0.4925E-13  0.2180E+01
    -20.111  0.0000E+00  0.2180E+01
    -19.889  0.0000E+00  0.2180E+01
    -19.667  0.0000E+00  0.2180E+01
    -19.445  0.0000E+00  0.2180E+01
    -19.223  0.0000E+00  0.2180E+01
    -19.001  0.0000E+00  0.2180E+01
    -18.779  0.0000E+00  0.2180E+01
    -18.556  0.0000E+00  0.2180E+01
    -18.334  0.0000E+00  0.2180E+01
    -18.112  0.0000E+00  0.2180E+01
    -17.890  0.0000E+00  0.2180E+01
    -17.668  0.0000E+00  0.2180E+01
    -17.446  0.0000E+00  0.2180E+01
    -17.224  0.0000E+00  0.2180E+01
    -17.002  0.0000E+00  0.2180E+01
    -16.780  0.0000E+00  0.2180E+01
    -16.557  0.0000E+00  0.2180E+01
    -16.335  0.0000E+00  0.2180E+01
    -16.113  0.0000E+00  0.2180E+01
    -15.891  0.0000E+00  0.2180E+01
    -15.669  0.0000E+00  0.2180E+01
    -15.447  0.0000E+00  0.2180E+01
    -15.225  0.0000E+00  0.2180E+01
    -15.003  0.0000E+00  0.2180E+01
    -14.780  0.0000E+00  0.2180E+01
    -14.558  0.0000E+00  0.2180E+01
    -14.336  0.0000E+00  0.2180E+01
    -14.114  0.0000E+00  0.2180E+01
    -13.892  0.0000E+00  0.2180E+01
    -13.670  0.0000E+00  0.2180E+01
    -13.448  0.0000E+00  0.2180E+01
    -13.226  0.0000E+00  0.2180E+01
    -13.004  0.0000E+00  0.2180E+01
    -12.781  0.0000E+00  0.2180E+01
    -12.559  0.0000E+00  0.2180E+01
    -12.337  0.0000E+00  0.2180E+01
    -12.115  0.0000E+00  0.2180E+01
    -11.893  0.0000E+00  0.2180E+01
    -11.671  0.0000E+00  0.2180E+01
    -11.449  0.0000E+00  0.2180E+01
    -11.227  0.0000E+00  0.2180E+01
    -11.005  0.0000E+00  0.2180E+01
    -10.782  0.0000E+00  0.2180E+01
    -10.560  0.0000E+00  0.2180E+01
    -10.338  0.0000E+00  0.2180E+01
    -10.116  0.0000E+00  0.2180E+01
     -9.894  0.0000E+00  0.2180E+01
     -9.672  0.0000E+00  0.2180E+01
     -9.450  0.0000E+00  0.2180E+01
     -9.228  0.0000E+00  0.2180E+01
     -9.005  0.0000E+00  0.2180E+01
     -8.783  0.0000E+00  0.2180E+01
     -8.561  0.0000E+00  0.2180E+01
     -8.339  0.1481E-15  0.2180E+01
     -8.117  0.3459E-07  0.2180E+01
     -7.895  0.9221E-03  0.2180E+01
     -7.673  0.3858E-01  0.2189E+01
     -7.451  0.5007E-01  0.2200E+01
     -7.229  0.6188E-01  0.2214E+01
     -7.006  0.5533E-01  0.2226E+01
     -6.784  0.1201E+00  0.2253E+01
     -6.562  0.1176E+00  0.2279E+01
     -6.340  0.1675E+00  0.2316E+01
     -6.118  0.2337E+00  0.2368E+01
     -5.896  0.2680E+00  0.2427E+01
     -5.674  0.5683E-01  0.2440E+01
     -5.452  0.4876E-04  0.2440E+01
     -5.230  0.6158E-11  0.2440E+01
     -5.007  0.0000E+00  0.2440E+01
     -4.785  0.0000E+00  0.2440E+01
     -4.563  0.0000E+00  0.2440E+01
     -4.341  0.9200E-13  0.2440E+01
     -4.119  0.1511E-05  0.2440E+01
     -3.897  0.3975E-02  0.2441E+01
     -3.675  0.5824E-01  0.2454E+01
     -3.453  0.4010E-01  0.2463E+01
     -3.230  0.8018E-01  0.2481E+01
     -3.008  0.9536E-01  0.2502E+01
     -2.786  0.1784E+00  0.2541E+01
     -2.564  0.2363E+00  0.2594E+01
     -2.342  0.2179E+00  0.2642E+01
     -2.120  0.2425E+00  0.2696E+01
     -1.898  0.1805E+00  0.2736E+01
     -1.676  0.1684E+00  0.2774E+01
     -1.454  0.1326E+00  0.2803E+01
     -1.231  0.7140E-01  0.2819E+01
     -1.009  0.4913E-02  0.2820E+01
     -0.787  0.2764E-04  0.2820E+01
     -0.565  0.5031E-10  0.2820E+01
     -0.343  0.0000E+00  0.2820E+01
     -0.121  0.0000E+00  0.2820E+01
      0.101  0.1091E-13  0.2820E+01
      0.323  0.3373E-06  0.2820E+01
      0.545  0.1259E-02  0.2820E+01
      0.768  0.1421E-01  0.2823E+01
      0.990  0.5677E-01  0.2836E+01
      1.212  0.9724E-01  0.2858E+01
      1.434  0.9940E-01  0.2880E+01
      1.656  0.1165E+00  0.2906E+01
      1.878  0.1656E+00  0.2942E+01
      2.100  0.2270E+00  0.2993E+01
      2.322  0.2644E+00  0.3052E+01
      2.545  0.2612E+00  0.3110E+01
      2.767  0.2624E+00  0.3168E+01
      2.989  0.3272E+00  0.3240E+01
      3.211  0.3242E+00  0.3312E+01
      3.433  0.3588E+00  0.3392E+01
      3.655  0.4054E+00  0.3482E+01
      3.877  0.4906E+00  0.3591E+01
      4.099  0.5790E+00  0.3720E+01
      4.321  0.6284E+00  0.3859E+01
      4.544  0.6160E+00  0.3996E+01
      4.766  0.5871E+00  0.4127E+01
      4.988  0.5689E+00  0.4253E+01
      5.210  0.4826E+00  0.4360E+01
      5.432  0.3977E+00  0.4448E+01
      5.654  0.3084E+00  0.4517E+01
      5.876  0.2891E+00  0.4581E+01
      6.098  0.2713E+00  0.4641E+01
      6.321  0.1393E+00  0.4672E+01
      6.543  0.1846E+00  0.4713E+01
      6.765  0.1007E+00  0.4736E+01
      6.987  0.1016E+00  0.4758E+01
      7.209  0.1330E+00  0.4788E+01
      7.431  0.1412E+00  0.4819E+01
      7.653  0.1410E+00  0.4851E+01
      7.875  0.1829E+00  0.4891E+01
      8.097  0.1731E+00  0.4930E+01
      8.320  0.1527E+00  0.4964E+01
      8.542  0.1496E+00  0.4997E+01
      8.764  0.2166E+00  0.5045E+01
      8.986  0.2332E+00  0.5097E+01
      9.208  0.2004E+00  0.5141E+01
      9.430  0.2352E+00  0.5193E+01
      9.652  0.2616E+00  0.5252E+01
      9.874  0.3032E+00  0.5319E+01
     10.096  0.3882E+00  0.5405E+01
     10.319  0.4051E+00  0.5495E+01
     10.541  0.4597E+00  0.5597E+01
     10.763  0.4782E+00  0.5703E+01
     10.985  0.5381E+00  0.5823E+01
     11.207  0.5265E+00  0.5940E+01
     11.429  0.5106E+00  0.6053E+01
     11.651  0.4744E+00  0.6159E+01
     11.873  0.3012E+00  0.6226E+01
     12.096  0.6465E-01  0.6240E+01
     12.318  0.4344E-03  0.6240E+01
     12.540  0.1477E-08  0.6240E+01
     12.762  0.0000E+00  0.6240E+01
     12.984  0.0000E+00  0.6240E+01
     13.206  0.0000E+00  0.6240E+01
     13.428  0.0000E+00  0.6240E+01
     13.650  0.0000E+00  0.6240E+01
     13.872  0.0000E+00  0.6240E+01
     14.095  0.0000E+00  0.6240E+01
     14.317  0.0000E+00  0.6240E+01
     14.539  0.0000E+00  0.6240E+01
     14.761  0.0000E+00  0.6240E+01
     14.983  0.0000E+00  0.6240E+01
