  64  64   0   0
  0.1006440E+02  0.8603930E-09  0.8663666E-09  0.8641369E-09  0.5000000E-15
  1.000000000000000E-004
  CAR 
 HECN                                    
     14.66890028    -59.97028645  301      8.45473415      1.00000000
    -59.970  0.0000E+00  0.0000E+00
    -59.721  0.0000E+00  0.0000E+00
    -59.473  0.0000E+00  0.0000E+00
    -59.224  0.0000E+00  0.0000E+00
    -58.975  0.0000E+00  0.0000E+00
    -58.726  0.0000E+00  0.0000E+00
    -58.478  0.0000E+00  0.0000E+00
    -58.229  0.0000E+00  0.0000E+00
    -57.980  0.0000E+00  0.0000E+00
    -57.731  0.0000E+00  0.0000E+00
    -57.482  0.0000E+00  0.0000E+00
    -57.234  0.0000E+00  0.0000E+00
    -56.985  0.3447E-09  0.8577E-10
    -56.736  0.1150E-02  0.2861E-03
    -56.487  0.2295E+00  0.5739E-01
    -56.238  0.3233E+00  0.1378E+00
    -55.990  0.8691E-02  0.1400E+00
    -55.741  0.2698E-07  0.1400E+00
    -55.492  0.0000E+00  0.1400E+00
    -55.243  0.0000E+00  0.1400E+00
    -54.994  0.0000E+00  0.1400E+00
    -54.746  0.0000E+00  0.1400E+00
    -54.497  0.0000E+00  0.1400E+00
    -54.248  0.0000E+00  0.1400E+00
    -53.999  0.0000E+00  0.1400E+00
    -53.750  0.0000E+00  0.1400E+00
    -53.502  0.0000E+00  0.1400E+00
    -53.253  0.0000E+00  0.1400E+00
    -53.004  0.0000E+00  0.1400E+00
    -52.755  0.0000E+00  0.1400E+00
    -52.506  0.0000E+00  0.1400E+00
    -52.258  0.0000E+00  0.1400E+00
    -52.009  0.0000E+00  0.1400E+00
    -51.760  0.0000E+00  0.1400E+00
    -51.511  0.0000E+00  0.1400E+00
    -51.262  0.0000E+00  0.1400E+00
    -51.014  0.0000E+00  0.1400E+00
    -50.765  0.0000E+00  0.1400E+00
    -50.516  0.0000E+00  0.1400E+00
    -50.267  0.0000E+00  0.1400E+00
    -50.018  0.0000E+00  0.1400E+00
    -49.770  0.0000E+00  0.1400E+00
    -49.521  0.0000E+00  0.1400E+00
    -49.272  0.0000E+00  0.1400E+00
    -49.023  0.0000E+00  0.1400E+00
    -48.774  0.0000E+00  0.1400E+00
    -48.526  0.0000E+00  0.1400E+00
    -48.277  0.0000E+00  0.1400E+00
    -48.028  0.0000E+00  0.1400E+00
    -47.779  0.0000E+00  0.1400E+00
    -47.530  0.0000E+00  0.1400E+00
    -47.282  0.0000E+00  0.1400E+00
    -47.033  0.0000E+00  0.1400E+00
    -46.784  0.0000E+00  0.1400E+00
    -46.535  0.0000E+00  0.1400E+00
    -46.286  0.0000E+00  0.1400E+00
    -46.038  0.0000E+00  0.1400E+00
    -45.789  0.0000E+00  0.1400E+00
    -45.540  0.0000E+00  0.1400E+00
    -45.291  0.0000E+00  0.1400E+00
    -45.042  0.0000E+00  0.1400E+00
    -44.794  0.0000E+00  0.1400E+00
    -44.545  0.0000E+00  0.1400E+00
    -44.296  0.0000E+00  0.1400E+00
    -44.047  0.0000E+00  0.1400E+00
    -43.798  0.0000E+00  0.1400E+00
    -43.550  0.0000E+00  0.1400E+00
    -43.301  0.0000E+00  0.1400E+00
    -43.052  0.0000E+00  0.1400E+00
    -42.803  0.0000E+00  0.1400E+00
    -42.554  0.0000E+00  0.1400E+00
    -42.306  0.0000E+00  0.1400E+00
    -42.057  0.0000E+00  0.1400E+00
    -41.808  0.0000E+00  0.1400E+00
    -41.559  0.0000E+00  0.1400E+00
    -41.310  0.0000E+00  0.1400E+00
    -41.062  0.0000E+00  0.1400E+00
    -40.813  0.0000E+00  0.1400E+00
    -40.564  0.0000E+00  0.1400E+00
    -40.315  0.0000E+00  0.1400E+00
    -40.067  0.0000E+00  0.1400E+00
    -39.818  0.0000E+00  0.1400E+00
    -39.569  0.0000E+00  0.1400E+00
    -39.320  0.0000E+00  0.1400E+00
    -39.071  0.0000E+00  0.1400E+00
    -38.823  0.0000E+00  0.1400E+00
    -38.574  0.0000E+00  0.1400E+00
    -38.325  0.0000E+00  0.1400E+00
    -38.076  0.0000E+00  0.1400E+00
    -37.827  0.0000E+00  0.1400E+00
    -37.579  0.0000E+00  0.1400E+00
    -37.330  0.0000E+00  0.1400E+00
    -37.081  0.0000E+00  0.1400E+00
    -36.832  0.0000E+00  0.1400E+00
    -36.583  0.0000E+00  0.1400E+00
    -36.335  0.0000E+00  0.1400E+00
    -36.086  0.0000E+00  0.1400E+00
    -35.837  0.1602E-08  0.1400E+00
    -35.588  0.1950E-02  0.1405E+00
    -35.339  0.1195E+00  0.1702E+00
    -35.091  0.9704E+00  0.4116E+00
    -34.842  0.3542E+00  0.4998E+00
    -34.593  0.9372E-03  0.5000E+00
    -34.344  0.2134E-09  0.5000E+00
    -34.095  0.0000E+00  0.5000E+00
    -33.847  0.0000E+00  0.5000E+00
    -33.598  0.0000E+00  0.5000E+00
    -33.349  0.0000E+00  0.5000E+00
    -33.100  0.0000E+00  0.5000E+00
    -32.851  0.0000E+00  0.5000E+00
    -32.603  0.0000E+00  0.5000E+00
    -32.354  0.0000E+00  0.5000E+00
    -32.105  0.0000E+00  0.5000E+00
    -31.856  0.3507E-11  0.5000E+00
    -31.607  0.1209E-03  0.5000E+00
    -31.359  0.8622E-01  0.5215E+00
    -31.110  0.2468E+00  0.5829E+00
    -30.861  0.7891E+00  0.7792E+00
    -30.612  0.4308E+00  0.8864E+00
    -30.363  0.1057E+01  0.1149E+01
    -30.115  0.5161E+00  0.1278E+01
    -29.866  0.8732E-02  0.1280E+01
    -29.617  0.2294E-07  0.1280E+01
    -29.368  0.0000E+00  0.1280E+01
    -29.119  0.0000E+00  0.1280E+01
    -28.871  0.0000E+00  0.1280E+01
    -28.622  0.0000E+00  0.1280E+01
    -28.373  0.0000E+00  0.1280E+01
    -28.124  0.0000E+00  0.1280E+01
    -27.875  0.8078E-11  0.1280E+01
    -27.627  0.1882E-03  0.1280E+01
    -27.378  0.1080E+00  0.1307E+01
    -27.129  0.1606E+00  0.1347E+01
    -26.880  0.7318E+00  0.1529E+01
    -26.631  0.6052E+00  0.1680E+01
    -26.383  0.8228E-01  0.1700E+01
    -26.134  0.6943E-04  0.1700E+01
    -25.885  0.1137E-11  0.1700E+01
    -25.636  0.0000E+00  0.1700E+01
    -25.387  0.0000E+00  0.1700E+01
    -25.139  0.0000E+00  0.1700E+01
    -24.890  0.0000E+00  0.1700E+01
    -24.641  0.0000E+00  0.1700E+01
    -24.392  0.0000E+00  0.1700E+01
    -24.143  0.0000E+00  0.1700E+01
    -23.895  0.0000E+00  0.1700E+01
    -23.646  0.0000E+00  0.1700E+01
    -23.397  0.0000E+00  0.1700E+01
    -23.148  0.0000E+00  0.1700E+01
    -22.899  0.0000E+00  0.1700E+01
    -22.651  0.0000E+00  0.1700E+01
    -22.402  0.0000E+00  0.1700E+01
    -22.153  0.0000E+00  0.1700E+01
    -21.904  0.0000E+00  0.1700E+01
    -21.656  0.0000E+00  0.1700E+01
    -21.407  0.0000E+00  0.1700E+01
    -21.158  0.0000E+00  0.1700E+01
    -20.909  0.0000E+00  0.1700E+01
    -20.660  0.0000E+00  0.1700E+01
    -20.412  0.0000E+00  0.1700E+01
    -20.163  0.0000E+00  0.1700E+01
    -19.914  0.0000E+00  0.1700E+01
    -19.665  0.0000E+00  0.1700E+01
    -19.416  0.0000E+00  0.1700E+01
    -19.168  0.0000E+00  0.1700E+01
    -18.919  0.0000E+00  0.1700E+01
    -18.670  0.0000E+00  0.1700E+01
    -18.421  0.0000E+00  0.1700E+01
    -18.172  0.0000E+00  0.1700E+01
    -17.924  0.0000E+00  0.1700E+01
    -17.675  0.0000E+00  0.1700E+01
    -17.426  0.0000E+00  0.1700E+01
    -17.177  0.0000E+00  0.1700E+01
    -16.928  0.0000E+00  0.1700E+01
    -16.680  0.0000E+00  0.1700E+01
    -16.431  0.0000E+00  0.1700E+01
    -16.182  0.0000E+00  0.1700E+01
    -15.933  0.0000E+00  0.1700E+01
    -15.684  0.0000E+00  0.1700E+01
    -15.436  0.0000E+00  0.1700E+01
    -15.187  0.0000E+00  0.1700E+01
    -14.938  0.0000E+00  0.1700E+01
    -14.689  0.0000E+00  0.1700E+01
    -14.440  0.0000E+00  0.1700E+01
    -14.192  0.0000E+00  0.1700E+01
    -13.943  0.0000E+00  0.1700E+01
    -13.694  0.0000E+00  0.1700E+01
    -13.445  0.0000E+00  0.1700E+01
    -13.196  0.0000E+00  0.1700E+01
    -12.948  0.0000E+00  0.1700E+01
    -12.699  0.0000E+00  0.1700E+01
    -12.450  0.0000E+00  0.1700E+01
    -12.201  0.0000E+00  0.1700E+01
    -11.952  0.0000E+00  0.1700E+01
    -11.704  0.0000E+00  0.1700E+01
    -11.455  0.0000E+00  0.1700E+01
    -11.206  0.0000E+00  0.1700E+01
    -10.957  0.0000E+00  0.1700E+01
    -10.708  0.0000E+00  0.1700E+01
    -10.460  0.0000E+00  0.1700E+01
    -10.211  0.0000E+00  0.1700E+01
     -9.962  0.0000E+00  0.1700E+01
     -9.713  0.0000E+00  0.1700E+01
     -9.464  0.0000E+00  0.1700E+01
     -9.216  0.0000E+00  0.1700E+01
     -8.967  0.1145E-12  0.1700E+01
     -8.718  0.4777E-05  0.1700E+01
     -8.469  0.7237E-02  0.1702E+01
     -8.220  0.6067E-01  0.1717E+01
     -7.972  0.5346E-01  0.1730E+01
     -7.723  0.8981E-01  0.1753E+01
     -7.474  0.1251E+00  0.1784E+01
     -7.225  0.1934E+00  0.1832E+01
     -6.976  0.1960E+00  0.1881E+01
     -6.728  0.1790E+00  0.1925E+01
     -6.479  0.8083E-01  0.1945E+01
     -6.230  0.5949E-01  0.1960E+01
     -5.981  0.1658E-03  0.1960E+01
     -5.732  0.6942E-11  0.1960E+01
     -5.484  0.2009E-07  0.1960E+01
     -5.235  0.2083E-02  0.1961E+01
     -4.986  0.6425E-01  0.1977E+01
     -4.737  0.1465E-01  0.1980E+01
     -4.488  0.6261E-01  0.1996E+01
     -4.240  0.1245E+00  0.2027E+01
     -3.991  0.1262E+00  0.2058E+01
     -3.742  0.2371E+00  0.2117E+01
     -3.493  0.1912E+00  0.2165E+01
     -3.245  0.2135E+00  0.2218E+01
     -2.996  0.2273E+00  0.2274E+01
     -2.747  0.1939E+00  0.2323E+01
     -2.498  0.6060E-01  0.2338E+01
     -2.249  0.9430E-02  0.2340E+01
     -2.001  0.9217E-04  0.2340E+01
     -1.752  0.9627E-10  0.2340E+01
     -1.503  0.0000E+00  0.2340E+01
     -1.254  0.0000E+00  0.2340E+01
     -1.005  0.1653E-18  0.2340E+01
     -0.757  0.2084E-08  0.2340E+01
     -0.508  0.2851E-03  0.2340E+01
     -0.259  0.4434E-02  0.2341E+01
     -0.010  0.2280E-01  0.2347E+01
      0.239  0.9269E-01  0.2370E+01
      0.487  0.7957E-01  0.2390E+01
      0.736  0.1599E+00  0.2429E+01
      0.985  0.2118E+00  0.2482E+01
      1.234  0.2712E+00  0.2550E+01
      1.483  0.2771E+00  0.2619E+01
      1.731  0.2765E+00  0.2687E+01
      1.980  0.3157E+00  0.2766E+01
      2.229  0.3270E+00  0.2847E+01
      2.478  0.3790E+00  0.2942E+01
      2.727  0.4994E+00  0.3066E+01
      2.975  0.5399E+00  0.3200E+01
      3.224  0.5946E+00  0.3348E+01
      3.473  0.5899E+00  0.3495E+01
      3.722  0.6078E+00  0.3646E+01
      3.971  0.5346E+00  0.3779E+01
      4.219  0.4409E+00  0.3889E+01
      4.468  0.3506E+00  0.3976E+01
      4.717  0.3509E+00  0.4063E+01
      4.966  0.2678E+00  0.4130E+01
      5.215  0.2130E+00  0.4183E+01
      5.463  0.1701E+00  0.4225E+01
      5.712  0.1089E+00  0.4252E+01
      5.961  0.8403E-01  0.4273E+01
      6.210  0.1648E+00  0.4314E+01
      6.459  0.1833E+00  0.4360E+01
      6.707  0.1762E+00  0.4404E+01
      6.956  0.2226E+00  0.4459E+01
      7.205  0.2152E+00  0.4513E+01
      7.454  0.3061E+00  0.4589E+01
      7.703  0.3284E+00  0.4671E+01
      7.951  0.2707E+00  0.4738E+01
      8.200  0.2798E+00  0.4807E+01
      8.449  0.3234E+00  0.4888E+01
      8.698  0.3828E+00  0.4983E+01
      8.947  0.4308E+00  0.5090E+01
      9.195  0.5017E+00  0.5215E+01
      9.444  0.6254E+00  0.5371E+01
      9.693  0.5628E+00  0.5511E+01
      9.942  0.5332E+00  0.5643E+01
     10.191  0.5366E+00  0.5777E+01
     10.439  0.5061E+00  0.5903E+01
     10.688  0.4738E+00  0.6021E+01
     10.937  0.4693E+00  0.6138E+01
     11.186  0.3532E+00  0.6225E+01
     11.435  0.5861E-01  0.6240E+01
     11.683  0.1111E-03  0.6240E+01
     11.932  0.2639E-10  0.6240E+01
     12.181  0.0000E+00  0.6240E+01
     12.430  0.0000E+00  0.6240E+01
     12.679  0.0000E+00  0.6240E+01
     12.927  0.0000E+00  0.6240E+01
     13.176  0.0000E+00  0.6240E+01
     13.425  0.0000E+00  0.6240E+01
     13.674  0.0000E+00  0.6240E+01
     13.923  0.0000E+00  0.6240E+01
     14.171  0.0000E+00  0.6240E+01
     14.420  0.0000E+00  0.6240E+01
     14.669  0.0000E+00  0.6240E+01
