HECN                                    
           1
     8.603885   -0.027989   -0.001548
    -0.022665    8.663630   -0.010317
     0.029254   -0.025369    8.641282
   Ta   W    V    N    C    Cr   Mo
   7   6   7  13  19   6   6
Direct configuration=     1
   0.01077970  0.99917909  0.99595596
   0.26101150  0.99714427  0.25328238
   0.25270991  0.50167468  0.25217752
   0.50314910  0.50067418  0.99979334
   0.49786397  0.24164462  0.75198410
   0.99437150  0.50212432  0.50245963
   0.49702442  0.76059706  0.74412353
   0.98748847  0.23039450  0.25639083
   0.76275552  0.74456971  0.00371124
   0.01525565  0.24427764  0.73919883
   0.74471218  0.23177215  0.48278093
   0.00229630  0.73770904  0.75366442
   0.25275399  0.50168208  0.74770595
   0.25569022  0.27270614  0.98926456
   0.51963031  0.23952841  0.24582166
   0.73311717  0.00841754  0.27495531
   0.73345789  0.23370284  0.98362912
   0.24423615  0.73397991  0.00085913
   0.24488163  0.23973797  0.50947116
   0.24767784  0.75755393  0.50131708
   0.24508221  0.24824627  0.24879071
   0.24812624  0.99966467  0.00298132
   0.99692993  0.24402927  0.00478527
   0.74854802  0.24612299  0.23238706
   0.74824209  0.99531477  0.00944187
   0.50397595  0.99459802  0.23886051
   0.00021796  0.48903381  0.25206374
   0.49783232  0.75214154  0.99734561
   0.99834869  0.99206261  0.75297159
   0.75309107  0.23037530  0.74218328
   0.75475454  0.99260465  0.50835199
   0.49273459  0.25059136  0.49320426
   0.49077217  0.00142327  0.76000436
   0.99309476  0.99827650  0.25268663
   0.49297280  0.24620955  0.00467188
   0.26111800  0.74914187  0.25007257
   0.23795247  0.50004097  0.99921993
   0.00770885  0.74437247  0.00468876
   0.73946883  0.76057732  0.24603736
   0.75956763  0.48657397  0.00855204
   0.49708318  0.49883906  0.24869091
   0.25251365  0.24264748  0.75290370
   0.27466864  0.99993189  0.50257593
   0.99972740  0.25140379  0.49887013
   0.24748503  0.75863160  0.75217817
   0.24965042  0.49851100  0.50167723
   0.00460407  0.75245034  0.50395902
   0.99788698  0.48813238  0.75547374
   0.75162437  0.76853000  0.74940652
   0.74670137  0.48555444  0.50648470
   0.49418638  0.76972336  0.49711091
   0.49987700  0.50181133  0.74729289
   0.52264597  0.02124349  0.99107460
   0.98429416  0.52415960  0.97554421
   0.49994294  0.74101659  0.27887030
   0.23961948  0.00558538  0.72258623
   0.52328151  0.02050622  0.46869707
   0.72123529  0.00044678  0.78460285
   0.00526353  0.76532584  0.25288852
   0.73345947  0.51906820  0.25413675
   0.02048883  0.00501392  0.50611092
   0.50563534  0.51900784  0.49306267
   0.74891807  0.52157865  0.76173005
   0.74780477  0.74040934  0.49622470
HECN                                    
           1
     8.569482   -0.028843   -0.001653
    -0.023553    8.627069   -0.010503
     0.029027   -0.025491    8.608223
   Ta   W    V    N    C    Cr   Mo
   7   6   7  13  19   6   6
Direct configuration=     2
   0.01078321  0.99910968  0.99593132
   0.26102335  0.99713124  0.25329877
   0.25276118  0.50167254  0.25222492
   0.50318601  0.50070019  0.99977617
   0.49787176  0.24168014  0.75205851
   0.99442130  0.50212832  0.50247601
   0.49698418  0.76052351  0.74405801
   0.98752339  0.23040257  0.25643667
   0.76275686  0.74455887  0.00370608
   0.01525456  0.24429103  0.73918629
   0.74473753  0.23179221  0.48277749
   0.00229775  0.73769672  0.75366673
   0.25274110  0.50167168  0.74772009
   0.25573281  0.27271838  0.98925709
   0.51966708  0.23953281  0.24583291
   0.73309568  0.00841530  0.27498334
   0.73335986  0.23370931  0.98360330
   0.24422076  0.73392101  0.00089526
   0.24483255  0.23970508  0.50952455
   0.24760930  0.75759176  0.50128616
   0.24510393  0.24828387  0.24878961
   0.24817589  0.99966290  0.00297209
   0.99695699  0.24412937  0.00486236
   0.74858676  0.24608761  0.23228032
   0.74822530  0.99538973  0.00944958
   0.50404012  0.99455620  0.23878966
   0.00028464  0.48893423  0.25200871
   0.49779394  0.75224226  0.99729867
   0.99833951  0.99206654  0.75297416
   0.75306638  0.23034750  0.74227480
   0.75466674  0.99263414  0.50839014
   0.49268077  0.25055192  0.49317230
   0.49070451  0.00141236  0.76002321
   0.99304443  0.99830631  0.25271753
   0.49298138  0.24608493  0.00475435
   0.26110002  0.74914902  0.25003254
   0.23793434  0.50001619  0.99924904
   0.00775963  0.74437304  0.00467014
   0.73944445  0.76065700  0.24600683
   0.75960834  0.48656005  0.00855769
   0.49705916  0.49887174  0.24873410
   0.25249075  0.24259901  0.75294473
   0.27470193  0.99991321  0.50258598
   0.99975173  0.25140017  0.49885006
   0.24755388  0.75862102  0.75218081
   0.24968311  0.49849383  0.50166706
   0.00463351  0.75251947  0.50396653
   0.99791454  0.48810001  0.75553909
   0.75161599  0.76851904  0.74936794
   0.74663122  0.48552716  0.50653523
   0.49414433  0.76977723  0.49706200
   0.49989226  0.50184403  0.74727343
   0.52270994  0.02131849  0.99100660
   0.98426171  0.52416749  0.97547900
   0.49992955  0.74104945  0.27881827
   0.23960854  0.00556018  0.72258407
   0.52334150  0.02051729  0.46869549
   0.72118580  0.00033693  0.78462625
   0.00524473  0.76534821  0.25287922
   0.73345089  0.51905543  0.25416265
   0.02046655  0.00502732  0.50606821
   0.50566749  0.51899373  0.49307571
   0.74886979  0.52161902  0.76175790
   0.74783319  0.74042272  0.49616638
HECN                                    
           1
     8.592986   -0.028259   -0.001581
    -0.022946    8.652047   -0.010376
     0.029182   -0.025408    8.630809
   Ta   W    V    N    C    Cr   Mo
   7   6   7  13  19   6   6
Direct configuration=     3
   0.01078081  0.99915730  0.99594822
   0.26101523  0.99714018  0.25328753
   0.25272601  0.50167401  0.25219241
   0.50316069  0.50068234  0.99978794
   0.49786641  0.24165577  0.75200748
   0.99438714  0.50212557  0.50246477
   0.49701179  0.76057397  0.74410295
   0.98749943  0.23039703  0.25640523
   0.76275594  0.74456631  0.00370962
   0.01525531  0.24428185  0.73919489
   0.74472014  0.23177844  0.48277985
   0.00229676  0.73770517  0.75366515
   0.25274994  0.50167882  0.74771039
   0.25570359  0.27270998  0.98926221
   0.51964186  0.23952979  0.24582519
   0.73311042  0.00841684  0.27496412
   0.73342710  0.23370488  0.98362101
   0.24423133  0.73396142  0.00087048
   0.24486622  0.23972765  0.50948794
   0.24765631  0.75756581  0.50130736
   0.24508903  0.24825807  0.24879037
   0.24814183  0.99966411  0.00297842
   0.99693842  0.24406069  0.00480949
   0.74856019  0.24611188  0.23235353
   0.74823681  0.99533830  0.00944429
   0.50399611  0.99458489  0.23883825
   0.00023891  0.48900255  0.25204645
   0.49782026  0.75217316  0.99733086
   0.99834581  0.99206385  0.75297240
   0.75308332  0.23036657  0.74221203
   0.75472696  0.99261391  0.50836398
   0.49271769  0.25057898  0.49319422
   0.49075092  0.00141985  0.76001028
   0.99307895  0.99828586  0.25269634
   0.49297550  0.24617043  0.00469779
   0.26111235  0.74914412  0.25005999
   0.23794677  0.50003319  0.99922907
   0.00772480  0.74437265  0.00468291
   0.73946117  0.76060233  0.24602777
   0.75958042  0.48656960  0.00855381
   0.49707563  0.49884932  0.24870448
   0.25250646  0.24263226  0.75291659
   0.27467909  0.99992602  0.50257909
   0.99973504  0.25140266  0.49886383
   0.24750665  0.75862827  0.75217900
   0.24966069  0.49850561  0.50167404
   0.00461331  0.75247204  0.50396138
   0.99789564  0.48812221  0.75549427
   0.75162174  0.76852656  0.74939440
   0.74667934  0.48554588  0.50650058
   0.49417317  0.76974027  0.49709554
   0.49988179  0.50182160  0.74728677
   0.52266606  0.02126703  0.99105324
   0.98428397  0.52416208  0.97552373
   0.49993873  0.74102691  0.27885395
   0.23961605  0.00557747  0.72258555
   0.52330035  0.02050969  0.46869658
   0.72121975  0.00041230  0.78461020
   0.00525762  0.76533286  0.25288560
   0.73345678  0.51906419  0.25414489
   0.02048183  0.00501813  0.50609750
   0.50564544  0.51900341  0.49306677
   0.74890290  0.52159133  0.76173880
   0.74781370  0.74041354  0.49620637
HECN                                    
           1
     8.592893   -0.028261   -0.001582
    -0.022949    8.651949   -0.010377
     0.029181   -0.025408    8.630719
   Ta   W    V    N    C    Cr   Mo
   7   6   7  13  19   6   6
Direct configuration=     4
   0.01078082  0.99915712  0.99594815
   0.26101526  0.99714014  0.25328757
   0.25272615  0.50167400  0.25219254
   0.50316079  0.50068241  0.99978790
   0.49786643  0.24165587  0.75200768
   0.99438728  0.50212558  0.50246482
   0.49701168  0.76057377  0.74410277
   0.98749953  0.23039705  0.25640536
   0.76275594  0.74456628  0.00370961
   0.01525531  0.24428188  0.73919486
   0.74472021  0.23177850  0.48277984
   0.00229676  0.73770514  0.75366516
   0.25274990  0.50167879  0.74771043
   0.25570371  0.27271001  0.98926219
   0.51964196  0.23952980  0.24582522
   0.73311036  0.00841684  0.27496419
   0.73342684  0.23370490  0.98362094
   0.24423128  0.73396126  0.00087058
   0.24486609  0.23972756  0.50948808
   0.24765612  0.75756591  0.50130728
   0.24508909  0.24825817  0.24879036
   0.24814197  0.99966411  0.00297840
   0.99693849  0.24406096  0.00480969
   0.74856030  0.24611178  0.23235324
   0.74823676  0.99533851  0.00944431
   0.50399628  0.99458477  0.23883806
   0.00023909  0.48900228  0.25204630
   0.49782015  0.75217343  0.99733074
   0.99834578  0.99206386  0.75297240
   0.75308325  0.23036649  0.74221228
   0.75472672  0.99261399  0.50836408
   0.49271755  0.25057888  0.49319413
   0.49075074  0.00141982  0.76001033
   0.99307882  0.99828594  0.25269642
   0.49297552  0.24617009  0.00469802
   0.26111230  0.74914414  0.25005989
   0.23794672  0.50003312  0.99922915
   0.00772493  0.74437265  0.00468286
   0.73946110  0.76060255  0.24602769
   0.75958053  0.48656956  0.00855383
   0.49707557  0.49884941  0.24870460
   0.25250640  0.24263213  0.75291670
   0.27467919  0.99992597  0.50257911
   0.99973511  0.25140265  0.49886377
   0.24750684  0.75862824  0.75217901
   0.24966078  0.49850556  0.50167401
   0.00461339  0.75247223  0.50396140
   0.99789571  0.48812213  0.75549445
   0.75162172  0.76852653  0.74939429
   0.74667916  0.48554581  0.50650072
   0.49417305  0.76974042  0.49709541
   0.49988183  0.50182169  0.74728672
   0.52266623  0.02126724  0.99105305
   0.98428388  0.52416210  0.97552355
   0.49993870  0.74102700  0.27885381
   0.23961602  0.00557740  0.72258555
   0.52330051  0.02050972  0.46869657
   0.72121962  0.00041201  0.78461027
   0.00525757  0.76533292  0.25288557
   0.73345675  0.51906416  0.25414496
   0.02048177  0.00501816  0.50609738
   0.50564552  0.51900337  0.49306681
   0.74890277  0.52159144  0.76173888
   0.74781377  0.74041357  0.49620622
HECN                                    
           1
     8.592460   -0.028926   -0.001556
    -0.023623    8.649806   -0.010406
     0.029207   -0.025433    8.630749
   Ta   W    V    N    C    Cr   Mo
   7   6   7  13  19   6   6
Direct configuration=     5
   0.01069397  0.99910525  0.99595186
   0.26100009  0.99717466  0.25326541
   0.25271202  0.50162052  0.25220354
   0.50314634  0.50069496  0.99978392
   0.49791266  0.24175983  0.75199730
   0.99445145  0.50212323  0.50246591
   0.49698742  0.76050570  0.74406628
   0.98760421  0.23057632  0.25634700
   0.76265387  0.74461814  0.00368325
   0.01510178  0.24427394  0.73931243
   0.74474403  0.23190765  0.48285252
   0.00230310  0.73778765  0.75364752
   0.25272398  0.50165741  0.74773235
   0.25568273  0.27260476  0.98932693
   0.51953946  0.23958070  0.24584281
   0.73318475  0.00835538  0.27486552
   0.73344938  0.23377604  0.98363754
   0.24429958  0.73401180  0.00090612
   0.24488044  0.23976656  0.50945996
   0.24761412  0.75755399  0.50127817
   0.24517490  0.24829154  0.24878899
   0.24836525  0.99967227  0.00285992
   0.99695261  0.24428834  0.00484009
   0.74857285  0.24614312  0.23218482
   0.74827137  0.99540174  0.00957209
   0.50407633  0.99448669  0.23870560
   0.00022736  0.48895968  0.25188971
   0.49776507  0.75235997  0.99740286
   0.99824909  0.99204300  0.75293579
   0.75311635  0.23040937  0.74225846
   0.75471019  0.99254953  0.50852972
   0.49260006  0.25061090  0.49314968
   0.49060816  0.00140168  0.75995087
   0.99299196  0.99826855  0.25270820
   0.49294342  0.24610000  0.00481662
   0.26112632  0.74915080  0.25002266
   0.23786991  0.50002213  0.99926317
   0.00781933  0.74438969  0.00469487
   0.73943430  0.76076769  0.24601967
   0.75962238  0.48645948  0.00858676
   0.49704367  0.49882692  0.24871434
   0.25253353  0.24257518  0.75296154
   0.27480348  0.99989582  0.50258506
   0.99976840  0.25143515  0.49885066
   0.24755669  0.75867691  0.75218753
   0.24969955  0.49848135  0.50166392
   0.00464501  0.75254775  0.50395706
   0.99791262  0.48807524  0.75551752
   0.75161793  0.76858856  0.74933828
   0.74665155  0.48548439  0.50657657
   0.49409940  0.76988358  0.49705890
   0.49990733  0.50182848  0.74725191
   0.52256897  0.02118075  0.99107451
   0.98435124  0.52399669  0.97563872
   0.49990811  0.74112481  0.27865366
   0.23966860  0.00551490  0.72273717
   0.52326533  0.02044436  0.46880244
   0.72128720  0.00031441  0.78449563
   0.00522017  0.76517726  0.25288208
   0.73360947  0.51891622  0.25417230
   0.02039692  0.00497281  0.50605019
   0.50558177  0.51889804  0.49313530
   0.74885927  0.52145177  0.76170508
   0.74786155  0.74047774  0.49618286
HECN                                    
           1
     8.592228   -0.029282   -0.001543
    -0.023985    8.648658   -0.010422
     0.029221   -0.025446    8.630765
   Ta   W    V    N    C    Cr   Mo
   7   6   7  13  19   6   6
Direct configuration=     6
   0.01064739  0.99907743  0.99595385
   0.26099195  0.99719317  0.25325352
   0.25270444  0.50159183  0.25220944
   0.50313859  0.50070170  0.99978178
   0.49793745  0.24181559  0.75199174
   0.99448586  0.50212197  0.50246649
   0.49697441  0.76046920  0.74404671
   0.98766035  0.23067246  0.25631572
   0.76259914  0.74464595  0.00366912
   0.01501946  0.24426968  0.73937547
   0.74475681  0.23197692  0.48289149
   0.00230650  0.73783190  0.75363807
   0.25271008  0.50164594  0.74774410
   0.25567148  0.27254830  0.98936164
   0.51948450  0.23960800  0.24585224
   0.73322463  0.00832242  0.27481261
   0.73346147  0.23381419  0.98364643
   0.24433620  0.73403891  0.00092517
   0.24488814  0.23978748  0.50944489
   0.24759159  0.75754759  0.50126256
   0.24522091  0.24830944  0.24878826
   0.24848498  0.99967666  0.00279639
   0.99696019  0.24441028  0.00485639
   0.74857959  0.24615993  0.23209452
   0.74828993  0.99543566  0.00964060
   0.50411924  0.99443409  0.23863458
   0.00022107  0.48893684  0.25180574
   0.49773554  0.75246002  0.99744153
   0.99819724  0.99203182  0.75291617
   0.75313410  0.23043236  0.74228322
   0.75470132  0.99251496  0.50861853
   0.49253707  0.25062807  0.49312584
   0.49053171  0.00139195  0.75991899
   0.99294539  0.99825922  0.25271452
   0.49292620  0.24606241  0.00488022
   0.26113383  0.74915438  0.25000271
   0.23782873  0.50001623  0.99928141
   0.00786995  0.74439884  0.00470131
   0.73941994  0.76085625  0.24601536
   0.75964483  0.48640045  0.00860442
   0.49702657  0.49881485  0.24871957
   0.25254808  0.24254464  0.75298558
   0.27487013  0.99987965  0.50258825
   0.99978626  0.25145259  0.49884363
   0.24758342  0.75870302  0.75219210
   0.24972034  0.49846837  0.50165850
   0.00466197  0.75258826  0.50395473
   0.99792169  0.48805010  0.75552989
   0.75161590  0.76862183  0.74930825
   0.74663674  0.48545145  0.50661724
   0.49405992  0.76996036  0.49703932
   0.49992101  0.50183212  0.74723324
   0.52251682  0.02113436  0.99108602
   0.98438735  0.52390797  0.97570047
   0.49989171  0.74117727  0.27854635
   0.23969680  0.00548138  0.72281847
   0.52324647  0.02040930  0.46885920
   0.72132344  0.00026207  0.78443416
   0.00520011  0.76509377  0.25288020
   0.73369135  0.51883688  0.25418696
   0.02035142  0.00494848  0.50602489
   0.50554759  0.51884154  0.49317203
   0.74883593  0.52137687  0.76168696
   0.74788717  0.74051216  0.49617034
HECN                                    
           1
     8.592167   -0.029376   -0.001539
    -0.024081    8.648354   -0.010426
     0.029224   -0.025450    8.630769
   Ta   W    V    N    C    Cr   Mo
   7   6   7  13  19   6   6
Direct configuration=     7
   0.01063508  0.99907008  0.99595438
   0.26098980  0.99719806  0.25325038
   0.25270243  0.50158425  0.25221100
   0.50313654  0.50070348  0.99978122
   0.49794401  0.24183034  0.75199027
   0.99449496  0.50212163  0.50246665
   0.49697096  0.76045954  0.74404154
   0.98767520  0.23069789  0.25630744
   0.76258467  0.74465330  0.00366538
   0.01499769  0.24426855  0.73939213
   0.74476019  0.23199524  0.48290179
   0.00230740  0.73784360  0.75363557
   0.25270640  0.50164291  0.74774721
   0.25566850  0.27253338  0.98937081
   0.51946997  0.23961521  0.24585473
   0.73323518  0.00831370  0.27479862
   0.73346466  0.23382428  0.98364879
   0.24434588  0.73404608  0.00093021
   0.24489018  0.23979301  0.50944090
   0.24758564  0.75754590  0.50125843
   0.24523307  0.24831417  0.24878807
   0.24851663  0.99967782  0.00277960
   0.99696220  0.24444253  0.00486070
   0.74858137  0.24616437  0.23207065
   0.74829484  0.99544463  0.00965872
   0.50413059  0.99442018  0.23861581
   0.00021940  0.48893080  0.25178354
   0.49772773  0.75248647  0.99745175
   0.99818354  0.99202886  0.75291098
   0.75313880  0.23043844  0.74228977
   0.75469897  0.99250582  0.50864201
   0.49252041  0.25063261  0.49311954
   0.49051150  0.00138937  0.75991057
   0.99293308  0.99825675  0.25271619
   0.49292165  0.24605246  0.00489703
   0.26113582  0.74915533  0.24999743
   0.23781784  0.50001467  0.99928624
   0.00788334  0.74440126  0.00470301
   0.73941614  0.76087967  0.24601423
   0.75965076  0.48638484  0.00860909
   0.49702205  0.49881166  0.24872095
   0.25255193  0.24253657  0.75299194
   0.27488775  0.99987538  0.50258910
   0.99979098  0.25145720  0.49884177
   0.24759049  0.75870992  0.75219331
   0.24972583  0.49846494  0.50165707
   0.00466646  0.75259897  0.50395412
   0.99792408  0.48804345  0.75553316
   0.75161536  0.76863063  0.74930031
   0.74663283  0.48544274  0.50662799
   0.49404948  0.76998066  0.49703414
   0.49992462  0.50183308  0.74722831
   0.52250303  0.02112210  0.99108906
   0.98439690  0.52388452  0.97571680
   0.49988737  0.74119114  0.27851797
   0.23970425  0.00547251  0.72283996
   0.52324148  0.02040003  0.46887421
   0.72133302  0.00024824  0.78441791
   0.00519481  0.76507169  0.25287971
   0.73371300  0.51881590  0.25419084
   0.02033939  0.00494205  0.50601820
   0.50553855  0.51882661  0.49318174
   0.74882976  0.52135706  0.76168217
   0.74789395  0.74052126  0.49616703
HECN                                    
           1
     8.590142   -0.029714   -0.001574
    -0.024425    8.645531   -0.010279
     0.029184   -0.025299    8.627980
   Ta   W    V    N    C    Cr   Mo
   7   6   7  13  19   6   6
Direct configuration=     8
   0.01059999  0.99908114  0.99601342
   0.26098751  0.99720879  0.25321272
   0.25273145  0.50157411  0.25217854
   0.50312700  0.50067422  0.99981376
   0.49799018  0.24188422  0.75204765
   0.99456186  0.50216738  0.50255065
   0.49698662  0.76042089  0.74394407
   0.98767697  0.23076623  0.25627431
   0.76258383  0.74465654  0.00361067
   0.01499528  0.24423466  0.73943835
   0.74478632  0.23203170  0.48279244
   0.00233368  0.73783681  0.75367468
   0.25267546  0.50159163  0.74780323
   0.25562703  0.27240014  0.98939106
   0.51943320  0.23963869  0.24592435
   0.73328234  0.00832541  0.27484626
   0.73338921  0.23392567  0.98368183
   0.24445533  0.73411108  0.00098686
   0.24487604  0.23980684  0.50951972
   0.24756185  0.75752169  0.50120338
   0.24539240  0.24832388  0.24880676
   0.24867493  0.99970747  0.00263372
   0.99701502  0.24472454  0.00489347
   0.74861279  0.24618171  0.23199202
   0.74832154  0.99553053  0.00970794
   0.50417628  0.99429650  0.23856683
   0.00019937  0.48890415  0.25159201
   0.49769819  0.75271487  0.99756139
   0.99800215  0.99200485  0.75291491
   0.75319315  0.23053993  0.74228891
   0.75466416  0.99255481  0.50884267
   0.49238055  0.25066262  0.49310076
   0.49045591  0.00141176  0.75985458
   0.99292201  0.99827087  0.25267892
   0.49291175  0.24602633  0.00493804
   0.26110857  0.74917243  0.24996223
   0.23781430  0.49998295  0.99931825
   0.00784386  0.74433970  0.00467030
   0.73940294  0.76090560  0.24599115
   0.75964927  0.48630545  0.00860769
   0.49712811  0.49882770  0.24875164
   0.25244999  0.24248896  0.75301632
   0.27489459  0.99987507  0.50265732
   0.99982900  0.25145980  0.49889566
   0.24758202  0.75871545  0.75220501
   0.24970736  0.49843631  0.50166812
   0.00467984  0.75260262  0.50395598
   0.99792403  0.48810290  0.75557065
   0.75161812  0.76857147  0.74924830
   0.74666786  0.48542613  0.50670948
   0.49403784  0.77002677  0.49687684
   0.49988642  0.50183030  0.74726009
   0.52245253  0.02100185  0.99102755
   0.98445125  0.52382937  0.97575861
   0.49986905  0.74130282  0.27843623
   0.23971845  0.00537692  0.72290545
   0.52330191  0.02036480  0.46882666
   0.72128676  0.00016541  0.78437998
   0.00512623  0.76492289  0.25286816
   0.73374249  0.51873706  0.25427442
   0.02035116  0.00496692  0.50592124
   0.50549637  0.51883400  0.49314874
   0.74881719  0.52124016  0.76174186
   0.74788149  0.74047531  0.49606533
HECN                                    
           1
     8.591244   -0.029530   -0.001555
    -0.024238    8.647067   -0.010359
     0.029206   -0.025381    8.629498
   Ta   W    V    N    C    Cr   Mo
   7   6   7  13  19   6   6
Direct configuration=     9
   0.01061909  0.99907512  0.99598128
   0.26098876  0.99720295  0.25323322
   0.25271566  0.50157963  0.25219621
   0.50313220  0.50069015  0.99979605
   0.49796505  0.24185489  0.75201642
   0.99452545  0.50214248  0.50250493
   0.49697810  0.76044193  0.74399712
   0.98767601  0.23072903  0.25629234
   0.76258428  0.74465478  0.00364045
   0.01499659  0.24425310  0.73941319
   0.74477210  0.23201185  0.48285196
   0.00231938  0.73784051  0.75365339
   0.25269230  0.50161954  0.74777274
   0.25564960  0.27247266  0.98938004
   0.51945321  0.23962591  0.24588646
   0.73325667  0.00831903  0.27482033
   0.73343028  0.23387048  0.98366384
   0.24439576  0.73407570  0.00095603
   0.24488373  0.23979931  0.50947682
   0.24757480  0.75753487  0.50123335
   0.24530568  0.24831859  0.24879659
   0.24858877  0.99969133  0.00271312
   0.99698627  0.24457104  0.00487564
   0.74859569  0.24617227  0.23203482
   0.74830700  0.99548377  0.00968115
   0.50415142  0.99436382  0.23859349
   0.00021027  0.48891865  0.25169626
   0.49771426  0.75259055  0.99750171
   0.99810087  0.99201792  0.75291277
   0.75316357  0.23048469  0.74228937
   0.75468311  0.99252815  0.50873345
   0.49245667  0.25064629  0.49311098
   0.49048616  0.00139957  0.75988506
   0.99292803  0.99826318  0.25269921
   0.49291714  0.24604055  0.00491572
   0.26112340  0.74916312  0.24998139
   0.23781623  0.50000021  0.99930083
   0.00786535  0.74437320  0.00468811
   0.73941013  0.76089149  0.24600371
   0.75965008  0.48634866  0.00860845
   0.49707039  0.49881897  0.24873494
   0.25250547  0.24251488  0.75300305
   0.27489087  0.99987524  0.50262019
   0.99980831  0.25145838  0.49886633
   0.24758663  0.75871244  0.75219864
   0.24971741  0.49845189  0.50166211
   0.00467256  0.75260063  0.50395497
   0.99792406  0.48807054  0.75555025
   0.75161662  0.76860367  0.74927661
   0.74664879  0.48543517  0.50666513
   0.49404417  0.77000167  0.49696246
   0.49990721  0.50183181  0.74724279
   0.52248002  0.02106730  0.99106103
   0.98442167  0.52385939  0.97573585
   0.49987902  0.74124203  0.27848072
   0.23971072  0.00542895  0.72286980
   0.52326902  0.02038398  0.46885254
   0.72131194  0.00021050  0.78440062
   0.00516356  0.76500388  0.25287444
   0.73372644  0.51877997  0.25422892
   0.02034475  0.00495338  0.50597402
   0.50551932  0.51882997  0.49316670
   0.74882403  0.52130379  0.76170937
   0.74788827  0.74050032  0.49612069
HECN                                    
           1
     8.592432   -0.029417   -0.001599
    -0.024122    8.648515   -0.010081
     0.029167   -0.025108    8.629898
   Ta   W    V    N    C    Cr   Mo
   7   6   7  13  19   6   6
Direct configuration=    10
   0.01061727  0.99912572  0.99604434
   0.26098516  0.99721128  0.25319544
   0.25275350  0.50158225  0.25215186
   0.50311460  0.50065969  0.99983788
   0.49799109  0.24186546  0.75208022
   0.99458103  0.50218779  0.50259040
   0.49700627  0.76043210  0.74389222
   0.98764417  0.23075251  0.25628320
   0.76260832  0.74463544  0.00358226
   0.01503336  0.24420961  0.73942816
   0.74479413  0.23201090  0.48270584
   0.00234819  0.73780468  0.75370426
   0.25266529  0.50157229  0.74783986
   0.25561214  0.27235613  0.98937441
   0.51944450  0.23963083  0.24596407
   0.73329494  0.00835339  0.27490490
   0.73332657  0.23396706  0.98369361
   0.24449592  0.73413566  0.00100487
   0.24485697  0.23979650  0.50958678
   0.24756687  0.75750934  0.50118457
   0.24545519  0.24830801  0.24882158
   0.24865281  0.99972603  0.00259488
   0.99704766  0.24478080  0.00489671
   0.74862560  0.24618142  0.23202040
   0.74832350  0.99555573  0.00966836
   0.50416574  0.99427231  0.23860677
   0.00019262  0.48891976  0.25155635
   0.49771019  0.75276253  0.99758765
   0.99793207  0.99201122  0.75292850
   0.75319841  0.23059138  0.74226364
   0.75465308  0.99262032  0.50890430
   0.49236553  0.25066267  0.49311605
   0.49048464  0.00143368  0.75983361
   0.99297022  0.99827220  0.25265155
   0.49291990  0.24604478  0.00490644
   0.26107355  0.74918164  0.24996267
   0.23785623  0.49997024  0.99931604
   0.00779406  0.74430705  0.00465225
   0.73941573  0.76083533  0.24597539
   0.75963368  0.48632587  0.00860074
   0.49718389  0.49885001  0.24875679
   0.25241680  0.24247465  0.75301314
   0.27483908  0.99988976  0.50269027
   0.99982285  0.25145398  0.49892413
   0.24756110  0.75869824  0.75220522
   0.24968084  0.49843657  0.50167830
   0.00466612  0.75257359  0.50396021
   0.99791959  0.48815531  0.75557923
   0.75162325  0.76850351  0.74924004
   0.74669982  0.48545632  0.50672317
   0.49406455  0.76999117  0.49682343
   0.49984859  0.50183289  0.74729662
   0.52245723  0.02095201  0.99096615
   0.98445284  0.52384332  0.97576047
   0.49987107  0.74135021  0.27841936
   0.23969664  0.00532262  0.72291608
   0.52334252  0.02036452  0.46877013
   0.72123894  0.00014285  0.78438641
   0.00509539  0.76490305  0.25285243
   0.73372036  0.51875186  0.25431539
   0.02039849  0.00499534  0.50588711
   0.50550588  0.51887543  0.49311305
   0.74882578  0.52120773  0.76179432
   0.74785809  0.74041318  0.49601566
HECN                                    
           1
     8.592537   -0.029407   -0.001603
    -0.024112    8.648645   -0.010057
     0.029163   -0.025083    8.629934
   Ta   W    V    N    C    Cr   Mo
   7   6   7  13  19   6   6
Direct configuration=    11
   0.01061710  0.99913023  0.99604996
   0.26098484  0.99721202  0.25319208
   0.25275687  0.50158248  0.25214791
   0.50311303  0.50065697  0.99984161
   0.49799341  0.24186640  0.75208591
   0.99458598  0.50219183  0.50259802
   0.49700878  0.76043123  0.74388287
   0.98764133  0.23075460  0.25628239
   0.76261046  0.74463372  0.00357708
   0.01503664  0.24420573  0.73942949
   0.74479609  0.23201081  0.48269281
   0.00235076  0.73780148  0.75370879
   0.25266288  0.50156808  0.74784585
   0.25560880  0.27234575  0.98937391
   0.51944372  0.23963126  0.24597099
   0.73329835  0.00835645  0.27491243
   0.73331733  0.23397567  0.98369627
   0.24450485  0.73414101  0.00100923
   0.24485458  0.23979625  0.50959659
   0.24756616  0.75750707  0.50118022
   0.24546851  0.24830707  0.24882380
   0.24865851  0.99972912  0.00258434
   0.99705313  0.24479950  0.00489859
   0.74862827  0.24618223  0.23201912
   0.74832497  0.99556215  0.00966722
   0.50416702  0.99426415  0.23860795
   0.00019104  0.48891986  0.25154387
   0.49770982  0.75277786  0.99759531
   0.99791703  0.99201063  0.75292991
   0.75320151  0.23060089  0.74226134
   0.75465041  0.99262853  0.50891953
   0.49235740  0.25066413  0.49311650
   0.49048450  0.00143672  0.75982902
   0.99297398  0.99827301  0.25264730
   0.49292014  0.24604516  0.00490561
   0.26106911  0.74918330  0.24996100
   0.23785980  0.49996757  0.99931740
   0.00778771  0.74430116  0.00464906
   0.73941623  0.76083033  0.24597286
   0.75963222  0.48632384  0.00860005
   0.49719401  0.49885278  0.24875874
   0.25240889  0.24247107  0.75301404
   0.27483446  0.99989105  0.50269651
   0.99982415  0.25145359  0.49892929
   0.24755882  0.75869698  0.75220581
   0.24967758  0.49843521  0.50167974
   0.00466555  0.75257118  0.50396067
   0.99791919  0.48816286  0.75558182
   0.75162384  0.76849459  0.74923678
   0.74670437  0.48545820  0.50672834
   0.49406637  0.76999023  0.49681104
   0.49984337  0.50183299  0.74730142
   0.52245520  0.02094174  0.99095769
   0.98445562  0.52384189  0.97576266
   0.49987036  0.74135986  0.27841388
   0.23969538  0.00531314  0.72292021
   0.52334907  0.02036279  0.46876278
   0.72123244  0.00013682  0.78438514
   0.00508931  0.76489406  0.25285047
   0.73371982  0.51874936  0.25432310
   0.02040328  0.00499908  0.50587936
   0.50550468  0.51887949  0.49310827
   0.74882594  0.52119917  0.76180190
   0.74785540  0.74040541  0.49600630
HECN                                    
           1
     8.592473   -0.029413   -0.001600
    -0.024118    8.648566   -0.010072
     0.029166   -0.025098    8.629912
   Ta   W    V    N    C    Cr   Mo
   7   6   7  13  19   6   6
Direct configuration=    12
   0.01061720  0.99912749  0.99604654
   0.26098504  0.99721157  0.25319412
   0.25275482  0.50158234  0.25215031