 running on   24 total cores
 distrk:  each k-point on   24 cores,    1 groups
 distr:  one band on    1 cores,   24 groups
 using from now: INCAR     
 vasp.5.4.4.18Apr17-6-g9f103f2a35 (build Oct 18 2021 20:38:43) complex          
  
 POSCAR found type information on POSCAR  Ta W  V  N  C  Cr Mo
 POSCAR found :  7 types and      64 ions
 scaLAPACK will be used

 ----------------------------------------------------------------------------- 
|                                                                             |
|           W    W    AA    RRRRR   N    N  II  N    N   GGGG   !!!           |
|           W    W   A  A   R    R  NN   N  II  NN   N  G    G  !!!           |
|           W    W  A    A  R    R  N N  N  II  N N  N  G       !!!           |
|           W WW W  AAAAAA  RRRRR   N  N N  II  N  N N  G  GGG   !            |
|           WW  WW  A    A  R   R   N   NN  II  N   NN  G    G                |
|           W    W  A    A  R    R  N    N  II  N    N   GGGG   !!!           |
|                                                                             |
|      For optimal performance we recommend to set                            |
|        NCORE= 4 - approx SQRT( number of cores)                             |
|      NCORE specifies how many cores store one orbital (NPAR=cpu/NCORE).     |
|      This setting can  greatly improve the performance of VASP for DFT.     |
|      The default,   NCORE=1            might be grossly inefficient         |
|      on modern multi-core architectures or massively parallel machines.     |
|      Do your own testing !!!!                                               |
|      Unfortunately you need to use the default for GW and RPA calculations. |
|      (for HF NCORE is supported but not extensively tested yet)             |
|                                                                             |
 ----------------------------------------------------------------------------- 


 ----------------------------------------------------------------------------- 
|                                                                             |
|  ADVICE TO THIS USER RUNNING 'VASP/VAMP'   (HEAR YOUR MASTER'S VOICE ...):  |
|                                                                             |
|      You have a (more or less) 'large supercell' and for larger cells       |
|      it might be more efficient to use real space projection operators      |
|      So try LREAL= Auto  in the INCAR   file.                               |
|      Mind: If you want to do a very accurate calculations keep the          |
|      reciprocal projection scheme          (i.e. LREAL=.FALSE.)             |
|                                                                             |
 ----------------------------------------------------------------------------- 

 LDA part: xc-table for Pade appr. of Perdew
 POSCAR, INCAR and KPOINTS ok, starting setup
 FFT: planning ...
 WAVECAR not read
 entering main loop
       N       E                     dE             d eps       ncg     rms          rms(c)
DAV:   1     0.615946520361E+04    0.61595E+04   -0.20728E+05  8736   0.149E+03
DAV:   2     0.116811736017E+03   -0.60427E+04   -0.58057E+04  9072   0.536E+02
DAV:   3    -0.706771240759E+03   -0.82358E+03   -0.76374E+03 12504   0.188E+02
DAV:   4    -0.785512838841E+03   -0.78742E+02   -0.76564E+02 14448   0.700E+01
DAV:   5    -0.789509476723E+03   -0.39966E+01   -0.39067E+01 14424   0.149E+01    0.724E+01
RMM:   6    -0.806151694634E+03   -0.16642E+02   -0.15544E+03 10140   0.113E+02    0.998E+01
RMM:   7    -0.681674400990E+03    0.12448E+03   -0.25820E+02 11576   0.443E+01    0.540E+01
RMM:   8    -0.664511412230E+03    0.17163E+02   -0.66947E+01 11695   0.198E+01    0.318E+01
RMM:   9    -0.654310791149E+03    0.10201E+02   -0.19181E+01 11450   0.117E+01    0.243E+01
RMM:  10    -0.650430772812E+03    0.38800E+01   -0.62700E+00 11724   0.670E+00    0.100E+01
RMM:  11    -0.650121391843E+03    0.30938E+00   -0.36372E+00 12117   0.376E+00    0.106E+01
RMM:  12    -0.649691703425E+03    0.42969E+00   -0.19725E+00 11688   0.320E+00    0.872E+00
RMM:  13    -0.649866153490E+03   -0.17445E+00   -0.18467E+00 11592   0.352E+00    0.106E+01
RMM:  14    -0.649464889821E+03    0.40126E+00   -0.15571E+00 11576   0.325E+00    0.675E+00
RMM:  15    -0.649386110773E+03    0.78779E-01   -0.84766E-01 11561   0.220E+00    0.586E+00
RMM:  16    -0.649226875437E+03    0.15924E+00   -0.28623E-01 11149   0.148E+00    0.389E+00
RMM:  17    -0.649136570843E+03    0.90305E-01   -0.19446E-01 11959   0.859E-01    0.121E+00
RMM:  18    -0.649132947553E+03    0.36233E-02   -0.18884E-01 12182   0.634E-01    0.144E+00
RMM:  19    -0.649125479642E+03    0.74679E-02   -0.73298E-02 11918   0.451E-01    0.704E-01
RMM:  20    -0.649126719387E+03   -0.12397E-02   -0.32871E-02 12084   0.300E-01    0.674E-01
RMM:  21    -0.649124712066E+03    0.20073E-02   -0.15575E-02 12089   0.221E-01    0.304E-01
RMM:  22    -0.649124989489E+03   -0.27742E-03   -0.80449E-03 11803   0.157E-01    0.371E-01
RMM:  23    -0.649124503748E+03    0.48574E-03   -0.41384E-03 11285   0.125E-01    0.209E-01
RMM:  24    -0.649124543406E+03   -0.39658E-04   -0.22420E-03 11186   0.821E-02    0.150E-01
RMM:  25    -0.649124500159E+03    0.43247E-04   -0.12481E-03 10234   0.501E-02    0.448E-02
RMM:  26    -0.649124522574E+03   -0.22415E-04   -0.55122E-04  7814   0.279E-02    0.431E-02
RMM:  27    -0.649124520015E+03    0.25597E-05   -0.26831E-04  7590   0.225E-02    0.183E-02
RMM:  28    -0.649124533350E+03   -0.13336E-04   -0.21318E-04  8915   0.219E-02    0.238E-02
RMM:  29    -0.649124532533E+03    0.81693E-06   -0.71644E-05  6491   0.167E-02
   1 F= -.64912453E+03 E0= -.64903528E+03  d E =-.649125E+03
 curvature:   0.00 expect dE= 0.000E+00 dE for cont linesearch  0.000E+00
 trial: gam= 0.00000 g(F)=  0.519E-03 g(S)=  0.643E-01 ort = 0.000E+00 (trialstep = 0.100E+01)
 search vector abs. value=  0.648E-01
 bond charge predicted
       N       E                     dE             d eps       ncg     rms          rms(c)
DAV:   1    -0.649844529094E+03   -0.72000E+00   -0.14724E+01 12768   0.162E+01    0.771E+00
RMM:   2    -0.654413472718E+03   -0.45689E+01   -0.99431E+00 10158   0.114E+01    0.233E+01
RMM:   3    -0.649926289191E+03    0.44872E+01   -0.26811E+00 10145   0.770E+00    0.109E+01
RMM:   4    -0.649189543962E+03    0.73675E+00   -0.59676E-01 10987   0.257E+00    0.317E+00
RMM:   5    -0.649261917268E+03   -0.72373E-01   -0.24569E-01 10907   0.165E+00    0.500E+00
RMM:   6    -0.649139318211E+03    0.12260E+00   -0.14411E-01 10632   0.132E+00    0.274E+00
RMM:   7    -0.649103871272E+03    0.35447E-01   -0.65982E-02 11199   0.786E-01    0.161E+00
RMM:   8    -0.649106584191E+03   -0.27129E-02   -0.32986E-02 10824   0.617E-01    0.173E+00
RMM:   9    -0.649089185601E+03    0.17399E-01   -0.14660E-02 10765   0.393E-01    0.588E-01
RMM:  10    -0.649088582883E+03    0.60272E-03   -0.68266E-03 10898   0.238E-01    0.490E-01
RMM:  11    -0.649087624759E+03    0.95812E-03   -0.27304E-03 10853   0.139E-01    0.256E-01
RMM:  12    -0.649087331764E+03    0.29300E-03   -0.13545E-03 10687   0.867E-02    0.162E-01
RMM:  13    -0.649087335655E+03   -0.38917E-05   -0.59793E-04  9875   0.695E-02    0.180E-01
RMM:  14    -0.649087206584E+03    0.12907E-03   -0.30764E-04  8938   0.538E-02    0.852E-02
RMM:  15    -0.649087252288E+03   -0.45704E-04   -0.27370E-04  9492   0.353E-02    0.863E-02
RMM:  16    -0.649087221424E+03    0.30864E-04   -0.11315E-04  7259   0.321E-02    0.488E-02
RMM:  17    -0.649087218996E+03    0.24273E-05   -0.61236E-05  6226   0.219E-02
   2 F= -.64908722E+03 E0= -.64899975E+03  d E =0.373135E-01
 trial-energy change:    0.037314  1 .order    0.037155   -0.064815    0.139124
 step:   0.3168(harm=  0.3178)  dis= 0.00028  next Energy=  -649.134794 (dE=-0.103E-01)
 bond charge predicted
       N       E                     dE             d eps       ncg     rms          rms(c)
DAV:   1    -0.649502971411E+03   -0.41575E+00   -0.69548E+00 12432   0.111E+01    0.556E+00
RMM:   2    -0.651989745053E+03   -0.24868E+01   -0.43005E+00 10750   0.693E+00    0.165E+01
RMM:   3    -0.649452830462E+03    0.25369E+01   -0.14881E+00 10355   0.562E+00    0.656E+00
RMM:   4    -0.649199149914E+03    0.25368E+00   -0.33934E-01 11068   0.180E+00    0.282E+00
RMM:   5    -0.649225812841E+03   -0.26663E-01   -0.11943E-01 10803   0.116E+00    0.365E+00
RMM:   6    -0.649155461592E+03    0.70351E-01   -0.66002E-02 10608   0.900E-01    0.180E+00
RMM:   7    -0.649146097143E+03    0.93644E-02   -0.30805E-02 11073   0.562E-01    0.132E+00
RMM:   8    -0.649143480117E+03    0.26170E-02   -0.16123E-02 10926   0.408E-01    0.111E+00
RMM:   9    -0.649135904057E+03    0.75761E-02   -0.72142E-03 10940   0.261E-01    0.379E-01
RMM:  10    -0.649136024154E+03   -0.12010E-03   -0.27015E-03 10380   0.171E-01    0.422E-01
RMM:  11    -0.649135086544E+03    0.93761E-03   -0.12177E-03 10332   0.108E-01    0.173E-01
RMM:  12    -0.649134982423E+03    0.10412E-03   -0.71880E-04 10357   0.624E-02    0.132E-01
RMM:  13    -0.649134895596E+03    0.86827E-04   -0.26839E-04  9482   0.477E-02    0.110E-01
RMM:  14    -0.649134848857E+03    0.46740E-04   -0.13823E-04  8008   0.388E-02    0.736E-02
RMM:  15    -0.649134844245E+03    0.46116E-05   -0.12061E-04  8135   0.304E-02    0.676E-02
RMM:  16    -0.649134813342E+03    0.30903E-04   -0.48613E-05  6431   0.236E-02    0.239E-02
RMM:  17    -0.649134815369E+03   -0.20275E-05   -0.22216E-05  5781   0.185E-02
   3 F= -.64913482E+03 E0= -.64904614E+03  d E =-.102828E-01
 curvature:  -0.16 expect dE=-0.367E-03 dE for cont linesearch -0.748E-06
 ZBRENT: interpolating
 opt :   0.3195  next Energy=  -649.134816 (dE=-0.103E-01)
 bond charge predicted
       N       E                     dE             d eps       ncg     rms          rms(c)
DAV:   1    -0.649134817129E+03   -0.37873E-05   -0.15213E-04 11424   0.498E-02    0.251E-02
RMM:   2    -0.649134897849E+03   -0.80720E-04   -0.11232E-04  7859   0.352E-02    0.101E-01
RMM:   3    -0.649134824657E+03    0.73191E-04   -0.33062E-05  6062   0.284E-02    0.420E-02
RMM:   4    -0.649134813548E+03    0.11110E-04   -0.84863E-06  5092   0.132E-02    0.125E-02
RMM:   5    -0.649134813764E+03   -0.21567E-06   -0.31531E-06  4833   0.908E-03
   4 F= -.64913481E+03 E0= -.64904614E+03  d E =-.102812E-01
 curvature:  -0.16 expect dE=-0.370E-03 dE for cont linesearch -0.172E-06
 trial: gam= 0.03190 g(F)=  0.225E-02 g(S)=  0.782E-04 ort = 0.265E-03 (trialstep = 0.864E+00)
 search vector abs. value=  0.242E-02
 bond charge predicted
       N       E                     dE             d eps       ncg     rms          rms(c)
DAV:   1    -0.649130014365E+03    0.47992E-02   -0.36145E-01  9744   0.337E+00    0.233E-01
RMM:   2    -0.649139157806E+03   -0.91434E-02   -0.74152E-02 13501   0.742E-01    0.580E-01
RMM:   3    -0.649136784488E+03    0.23733E-02   -0.57517E-03 10776   0.309E-01    0.316E-01
RMM:   4    -0.649136499611E+03    0.28488E-03   -0.18377E-03 10833   0.127E-01    0.204E-01
RMM:   5    -0.649136434537E+03    0.65074E-04   -0.65003E-04  9628   0.785E-02    0.198E-01
RMM:   6    -0.649136207840E+03    0.22670E-03   -0.31133E-04  9871   0.478E-02    0.807E-02
RMM:   7    -0.649136240821E+03   -0.32981E-04   -0.22524E-04  8946   0.439E-02    0.113E-01
RMM:   8    -0.649136177497E+03    0.63324E-04   -0.19311E-04  9139   0.426E-02    0.704E-02
RMM:   9    -0.649136148031E+03    0.29467E-04   -0.73630E-05  6828   0.260E-02    0.274E-02
RMM:  10    -0.649136146693E+03    0.13377E-05   -0.30113E-05  6075   0.185E-02
   5 F= -.64913615E+03 E0= -.64904735E+03  d E =-.133293E-02
 trial-energy change:   -0.001333  1 .order   -0.001364   -0.002023   -0.000706
 step:   1.3271(harm=  1.3271)  dis= 0.00302  next Energy=  -649.136368 (dE=-0.155E-02)
 bond charge predicted
       N       E                     dE             d eps       ncg     rms          rms(c)
DAV:   1    -0.649134534430E+03    0.16136E-02   -0.10384E-01  9744   0.181E+00    0.125E-01
RMM:   2    -0.649137227264E+03   -0.26928E-02   -0.21476E-02 13494   0.399E-01    0.324E-01
RMM:   3    -0.649136493129E+03    0.73413E-03   -0.16698E-03 10528   0.163E-01    0.167E-01
RMM:   4    -0.649136404025E+03    0.89104E-04   -0.55571E-04 10228   0.710E-02    0.101E-01
RMM:   5    -0.649136382084E+03    0.21942E-04   -0.18893E-04  8151   0.435E-02    0.986E-02
RMM:   6    -0.649136330414E+03    0.51669E-04   -0.80693E-05  6979   0.275E-02    0.492E-02
RMM:   7    -0.649136336008E+03   -0.55942E-05   -0.61230E-05  6803   0.267E-02
   6 F= -.64913634E+03 E0= -.64904748E+03  d E =-.152224E-02
 curvature:  -0.68 expect dE=-0.522E-03 dE for cont linesearch -0.828E-05
 ZBRENT: extrapolating
 opt :   1.4496  next Energy=  -649.136346 (dE=-0.153E-02)
 bond charge predicted
       N       E                     dE             d eps       ncg     rms          rms(c)
DAV:   1    -0.649136199524E+03    0.13089E-03   -0.70975E-03 11304   0.478E-01    0.584E-02
RMM:   2    -0.649137017406E+03   -0.81788E-03   -0.20220E-03 11812   0.124E-01    0.330E-01
RMM:   3    -0.649136326012E+03    0.69139E-03   -0.33859E-04  8970   0.814E-02    0.708E-02
RMM:   4    -0.649136299791E+03    0.26222E-04   -0.92730E-05  7550   0.332E-02    0.323E-02
RMM:   5    -0.649136301097E+03   -0.13065E-05   -0.21909E-05  5712   0.207E-02
   7 F= -.64913630E+03 E0= -.64904743E+03  d E =-.148733E-02
 curvature:  -0.87 expect dE=-0.941E-03 dE for cont linesearch -0.140E-04
 trial: gam= 0.60171 g(F)=  0.850E-03 g(S)=  0.237E-03 ort =-0.198E-03 (trialstep = 0.981E+00)
 search vector abs. value=  0.172E-02
 bond charge predicted
       N       E                     dE             d eps       ncg     rms          rms(c)
DAV:   1    -0.649136995074E+03   -0.69528E-03   -0.33269E-01 11880   0.292E+00    0.573E-01
RMM:   2    -0.649167527642E+03   -0.30533E-01   -0.80357E-02 11225   0.101E+00    0.184E+00
RMM:   3    -0.649141372207E+03    0.26155E-01   -0.18541E-02 10557   0.557E-01    0.861E-01
RMM:   4    -0.649137095261E+03    0.42769E-02   -0.47603E-03 10645   0.213E-01    0.316E-01
RMM:   5    -0.649137243947E+03   -0.14869E-03   -0.16527E-03  9996   0.152E-01    0.375E-01
RMM:   6    -0.649136655474E+03    0.58847E-03   -0.10999E-03 10633   0.105E-01    0.248E-01
RMM:   7    -0.649136375204E+03    0.28027E-03   -0.45019E-04  9492   0.748E-02    0.131E-01
RMM:   8    -0.649136440745E+03   -0.65541E-04   -0.38216E-04 10065   0.566E-02    0.151E-01
RMM:   9    -0.649136300941E+03    0.13980E-03   -0.13663E-04  7879   0.413E-02    0.575E-02
RMM:  10    -0.649136296082E+03    0.48590E-05   -0.66647E-05  6462   0.255E-02
   8 F= -.64913630E+03 E0= -.64904747E+03  d E =0.501463E-05
 trial-energy change:    0.000005  1 .order   -0.000132   -0.000950    0.000685
 step:   0.4472(harm=  0.5700)  dis= 0.00111  next Energy=  -649.136505 (dE=-0.203E-03)
 bond charge predicted
       N       E                     dE             d eps       ncg     rms          rms(c)
DAV:   1    -0.649136698154E+03   -0.39721E-03   -0.98866E-02 12096   0.159E+00    0.307E-01
RMM:   2    -0.649145509249E+03   -0.88111E-02   -0.23265E-02 11272   0.542E-01    0.991E-01
RMM:   3    -0.649137944449E+03    0.75648E-02   -0.53006E-03 10358   0.298E-01    0.464E-01
RMM:   4    -0.649136731095E+03    0.12134E-02   -0.13892E-03 10281   0.119E-01    0.179E-01
RMM:   5    -0.649136760724E+03   -0.29629E-04   -0.49017E-04  9317   0.840E-02    0.204E-01
RMM:   6    -0.649136576604E+03    0.18412E-03   -0.32070E-04  9884   0.565E-02    0.133E-01
RMM:   7    -0.649136494348E+03    0.82257E-04   -0.11577E-04  7892   0.439E-02    0.708E-02
RMM:   8    -0.649136504479E+03   -0.10131E-04   -0.10280E-04  7900   0.314E-02    0.749E-02
RMM:   9    -0.649136466410E+03    0.38069E-04   -0.32596E-05  5852   0.234E-02    0.314E-02
RMM:  10    -0.649136463236E+03    0.31739E-05   -0.14928E-05  5446   0.187E-02
   9 F= -.64913646E+03 E0= -.64904762E+03  d E =-.162139E-03
 curvature:  -0.46 expect dE=-0.486E-03 dE for cont linesearch -0.143E-05
 trial: gam= 0.69583 g(F)=  0.498E-03 g(S)=  0.554E-03 ort = 0.731E-04 (trialstep = 0.758E+00)
 search vector abs. value=  0.199E-02
 bond charge predicted
       N       E                     dE             d eps       ncg     rms          rms(c)
DAV:   1    -0.649133720743E+03    0.27457E-02   -0.21780E-01  9384   0.253E+00    0.234E-01
RMM:   2    -0.649141850264E+03   -0.81295E-02   -0.49504E-02 12577   0.653E-01    0.707E-01
RMM:   3    -0.649137506738E+03    0.43435E-02   -0.49344E-03 10906   0.253E-01    0.307E-01
RMM:   4    -0.649137065991E+03    0.44075E-03   -0.14224E-03 10739   0.103E-01    0.149E-01
RMM:   5    -0.649137060032E+03    0.59587E-05   -0.42890E-04  9673   0.631E-02    0.159E-01
RMM:   6    -0.649136918353E+03    0.14168E-03   -0.18377E-04  8774   0.433E-02    0.800E-02
RMM:   7    -0.649136915286E+03    0.30667E-05   -0.10977E-04  7450   0.322E-02    0.801E-02
RMM:   8    -0.649136919549E+03   -0.42630E-05   -0.87272E-05  7619   0.334E-02
  10 F= -.64913692E+03 E0= -.64904792E+03  d E =-.456313E-03
 trial-energy change:   -0.000456  1 .order   -0.000452   -0.000836   -0.000068
 step:   0.8255(harm=  0.8255)  dis= 0.00197  next Energy=  -649.136919 (dE=-0.455E-03)
 bond charge predicted
       N       E                     dE             d eps       ncg     rms          rms(c)
DAV:   1    -0.649136856128E+03    0.59158E-04   -0.19066E-03 12672   0.239E-01    0.353E-02
RMM:   2    -0.649137128010E+03   -0.27188E-03   -0.46003E-04 10222   0.712E-02    0.209E-01
RMM:   3    -0.649136878232E+03    0.24978E-03   -0.10969E-04  7144   0.505E-02    0.353E-02
RMM:   4    -0.649136870334E+03    0.78979E-05   -0.22765E-05  5683   0.203E-02
  11 F= -.64913687E+03 E0= -.64904793E+03  d E =-.407098E-03
 curvature:  -0.74 expect dE=-0.243E-03 dE for cont linesearch -0.732E-05
 ZBRENT: interpolating
 opt :   0.7845  next Energy=  -649.136921 (dE=-0.458E-03)
 bond charge predicted
       N       E                     dE             d eps       ncg     rms          rms(c)
DAV:   1    -0.649136863556E+03    0.14676E-04   -0.66869E-04 12384   0.144E-01    0.194E-02
RMM:   2    -0.649136965868E+03   -0.10231E-03   -0.14436E-04  8073   0.425E-02    0.135E-01
RMM:   3    -0.649136871686E+03    0.94182E-04   -0.32339E-05  5917   0.300E-02    0.187E-02
RMM:   4    -0.649136870025E+03    0.16605E-05   -0.71007E-06  4624   0.123E-02
  12 F= -.64913687E+03 E0= -.64904794E+03  d E =-.406789E-03
 curvature:  -0.12 expect dE=-0.475E-04 dE for cont linesearch -0.487E-07
 trial: gam= 0.43431 g(F)=  0.297E-03 g(S)=  0.929E-04 ort = 0.282E-04 (trialstep = 0.763E+00)
 search vector abs. value=  0.790E-03
 bond charge predicted
       N       E                     dE             d eps       ncg     rms          rms(c)
DAV:   1    -0.649134843964E+03    0.20277E-02   -0.98137E-02  9072   0.198E+00    0.109E-01
RMM:   2    -0.649137615847E+03   -0.27719E-02   -0.24657E-02 13330   0.403E-01    0.236E-01
RMM:   3    -0.649137112545E+03    0.50330E-03   -0.13588E-03 10563   0.136E-01    0.129E-01
RMM:   4    -0.649137085436E+03    0.27109E-04   -0.44245E-04  9921   0.597E-02    0.912E-02
RMM:   5    -0.649137052378E+03    0.33058E-04   -0.10351E-04  6949   0.338E-02    0.732E-02
RMM:   6    -0.649137024048E+03    0.28330E-04   -0.41457E-05  6041   0.258E-02    0.354E-02
RMM:   7    -0.649137035811E+03   -0.11762E-04   -0.42734E-05  6357   0.202E-02    0.593E-02
RMM:   8    -0.649137026006E+03    0.98047E-05   -0.35947E-05  6175   0.235E-02
  13 F= -.64913703E+03 E0= -.64904809E+03  d E =-.155981E-03
 trial-energy change:   -0.000156  1 .order   -0.000194   -0.000307   -0.000081
 step:   1.0361(harm=  1.0361)  dis= 0.00140  next Energy=  -649.137078 (dE=-0.208E-03)
 bond charge predicted
       N       E                     dE             d eps       ncg     rms          rms(c)
DAV:   1    -0.649136754541E+03    0.28127E-03   -0.12549E-02 10488   0.711E-01    0.403E-02
RMM:   2    -0.649137148008E+03   -0.39347E-03   -0.30819E-03 12935   0.144E-01    0.129E-01
RMM:   3    -0.649137040422E+03    0.10759E-03   -0.19109E-04  8168   0.564E-02    0.609E-02
RMM:   4    -0.649137030875E+03    0.95467E-05   -0.64647E-05  6901   0.289E-02
  14 F= -.64913703E+03 E0= -.64904807E+03  d E =-.160850E-03
 curvature:  -1.02 expect dE=-0.301E-03 dE for cont linesearch -0.543E-05
 ZBRENT: interpolating
 opt :   0.9324  next Energy=  -649.137034 (dE=-0.164E-03)
 bond charge predicted
       N       E                     dE             d eps       ncg     rms          rms(c)
DAV:   1    -0.649136996902E+03    0.43519E-04   -0.19086E-03 12648   0.280E-01    0.344E-02
RMM:   2    -0.649137339826E+03   -0.34292E-03   -0.57039E-04 10046   0.739E-02    0.240E-01
RMM:   3    -0.649137033312E+03    0.30651E-03   -0.11990E-04  7318   0.521E-02    0.406E-02
RMM:   4    -0.649137024885E+03    0.84279E-05   -0.23546E-05  5767   0.199E-02
  15 F= -.64913702E+03 E0= -.64904806E+03  d E =-.154859E-03
 curvature:  -0.63 expect dE=-0.252E-03 dE for cont linesearch -0.425E-05
 trial: gam= 0.84225 g(F)=  0.224E-03 g(S)=  0.175E-03 ort = 0.729E-04 (trialstep = 0.581E+00)
 search vector abs. value=  0.108E-02
 bond charge predicted
       N       E                     dE             d eps       ncg     rms          rms(c)
DAV:   1    -0.649135752298E+03    0.12810E-02   -0.81650E-02 11808   0.183E+00    0.176E-01
RMM:   2    -0.649140304020E+03   -0.45517E-02   -0.23419E-02 12202   0.416E-01    0.603E-01
RMM:   3    -0.649137569224E+03    0.27348E-02   -0.23599E-03 10401   0.183E-01    0.267E-01
RMM:   4    -0.649137196337E+03    0.37289E-03   -0.69233E-04 10304   0.793E-02    0.114E-01
RMM:   5    -0.649137202298E+03   -0.59612E-05   -0.20088E-04  8526   0.504E-02    0.129E-01
RMM:   6    -0.649137123527E+03    0.78771E-04   -0.10976E-04  7876   0.371E-02    0.797E-02
RMM:   7    -0.649137098915E+03    0.24612E-04   -0.54766E-05  6416   0.271E-02    0.494E-02
RMM:   8    -0.649137105599E+03   -0.66837E-05   -0.49639E-05  6589   0.268E-02
  16 F= -.64913711E+03 E0= -.64904801E+03  d E =-.807146E-04
 trial-energy change:   -0.000081  1 .order   -0.000121   -0.000268    0.000026
 step:   0.4434(harm=  0.5300)  dis= 0.00067  next Energy=  -649.137109 (dE=-0.843E-04)
 bond charge predicted
       N       E                     dE             d eps       ncg     rms          rms(c)
DAV:   1    -0.649137014758E+03    0.84158E-04   -0.48950E-03 12696   0.443E-01    0.479E-02
RMM:   2    -0.649137407831E+03   -0.39307E-03   -0.13923E-03 11186   0.108E-01    0.210E-01
RMM:   3    -0.649137121226E+03    0.28660E-03   -0.18387E-04  7952   0.573E-02    0.667E-02
RMM:   4    -0.649137093852E+03    0.27375E-04   -0.43105E-05  6226   0.271E-02    0.293E-02
RMM:   5    -0.649137093136E+03    0.71542E-06   -0.15995E-05  5446   0.211E-02
  17 F= -.64913709E+03 E0= -.64904807E+03  d E =-.682516E-04
 curvature:   1.14 expect dE= 0.589E-03 dE for cont linesearch  0.303E-06
 trial: gam= 1.47936 g(F)=  0.180E-03 g(S)=  0.336E-03 ort =-0.170E-04 (trialstep = 0.211E+00)
 search vector abs. value=  0.284E-02
 bond charge predicted
       N       E                     dE             d eps       ncg     rms          rms(c)
DAV:   1    -0.649136338275E+03    0.75558E-03   -0.27912E-02  8808   0.112E+00    0.529E-02
RMM:   2    -0.649137314467E+03   -0.97619E-03   -0.84686E-03 12976   0.236E-01    0.181E-01
RMM:   3    -0.649137161288E+03    0.15318E-03   -0.55509E-04  9146   0.707E-02    0.711E-02
RMM:   4    -0.649137159915E+03    0.13731E-05   -0.11996E-04  7637   0.364E-02    0.600E-02
RMM:   5    -0.649137143930E+03    0.15985E-04   -0.28856E-05  5817   0.227E-02    0.347E-02
RMM:   6    -0.649137137159E+03    0.67710E-05   -0.10938E-05  5452   0.151E-02
  18 F= -.64913714E+03 E0= -.64904806E+03  d E =-.440229E-04
 trial-energy change:   -0.000044  1 .order   -0.000058   -0.000104   -0.000012
 step:   0.2394(harm=  0.2394)  dis= 0.00056  next Energy=  -649.137152 (dE=-0.587E-04)
 bond charge predicted
       N       E                     dE             d eps       ncg     rms          rms(c)
DAV:   1    -0.649137131907E+03    0.12023E-04   -0.56575E-04 12456   0.150E-01    0.186E-02
RMM:   2    -0.649137202039E+03   -0.70132E-04   -0.14671E-04  7950   0.362E-02    0.103E-01
RMM:   3    -0.649137141682E+03    0.60357E-04   -0.28020E-05  5901   0.275E-02    0.200E-02
RMM:   4    -0.649137140247E+03    0.14355E-05   -0.64597E-06  4757   0.122E-02
  19 F= -.64913714E+03 E0= -.64904806E+03  d E =-.471104E-04
 curvature:  -0.69 expect dE=-0.193E-03 dE for cont linesearch -0.962E-07
 trial: gam=-0.05383 g(F)=  0.154E-03 g(S)=  0.125E-03 ort = 0.199E-04 (trialstep = 0.217E+00)
 search vector abs. value=  0.285E-03
 bond charge predicted
       N       E                     dE             d eps       ncg     rms          rms(c)
DAV:   1    -0.649137172631E+03   -0.30949E-04   -0.30035E-03 12264   0.349E-01    0.670E-02
RMM:   2    -0.649137569561E+03   -0.39693E-03   -0.11484E-03 10889   0.111E-01    0.204E-01
RMM:   3    -0.649137236672E+03    0.33289E-03   -0.23952E-04  8323   0.641E-02    0.101E-01
RMM:   4    -0.649137182596E+03    0.54077E-04   -0.60188E-05  6886   0.315E-02    0.412E-02
RMM:   5    -0.649137186300E+03   -0.37045E-05   -0.23628E-05  5698   0.219E-02
  20 F= -.64913719E+03 E0= -.64904815E+03  d E =-.460535E-04
 trial-energy change:   -0.000046  1 .order   -0.000043   -0.000060   -0.000025
 step:   0.3742(harm=  0.3742)  dis= 0.00038  next Energy=  -649.137192 (dE=-0.519E-04)
 bond charge predicted
       N       E                     dE             d eps       ncg     rms          rms(c)
DAV:   1    -0.649137201340E+03   -0.18744E-04   -0.16928E-03 12888   0.267E-01    0.687E-02
RMM:   2    -0.649137923925E+03   -0.72259E-03   -0.95850E-04 10077   0.107E-01    0.334E-01
RMM:   3    -0.649137269175E+03    0.65475E-03   -0.30513E-04  8259   0.758E-02    0.107E-01
RMM:   4    -0.649137192915E+03    0.76259E-04   -0.60153E-05  6983   0.312E-02    0.445E-02
RMM:   5    -0.649137188429E+03    0.44864E-05   -0.19653E-05  5586   0.219E-02
  21 F= -.64913719E+03 E0= -.64904815E+03  d E =-.481822E-04
 curvature:  -0.19 expect dE=-0.142E-04 dE for cont linesearch -0.442E-05
 ZBRENT: increasing intervall
 opt :   0.6883  next Energy=  -649.137203 (dE=-0.624E-04)
 bond charge predicted
       N       E                     dE             d eps       ncg     rms          rms(c)
DAV:   1    -0.649137187180E+03    0.57349E-05   -0.63795E-03 12240   0.512E-01    0.111E-01
RMM:   2    -0.649138505242E+03   -0.13181E-02   -0.28511E-03 11251   0.176E-01    0.400E-01
RMM:   3    -0.649137385430E+03    0.11198E-02   -0.69150E-04  9135   0.105E-01    0.183E-01
RMM:   4    -0.649137177031E+03    0.20840E-03   -0.19213E-04  9118   0.508E-02    0.469E-02
RMM:   5    -0.649137189158E+03   -0.12126E-04   -0.62070E-05  6722   0.301E-02    0.658E-02
RMM:   6    -0.649137166006E+03    0.23152E-04   -0.29671E-05  5853   0.238E-02    0.353E-02
RMM:   7    -0.649137162748E+03    0.32585E-05   -0.16895E-05  5452   0.182E-02
  22 F= -.64913716E+03 E0= -.64904817E+03  d E =-.225010E-04
 curvature:  -0.62 expect dE=-0.598E-04 dE for cont linesearch -0.491E-05
 ZBRENT: bracketing found
 ZBRENT: interpolating
 opt :   0.5722  next Energy=  -649.137166 (dE=-0.253E-04)
 bond charge predicted
       N       E                     dE             d eps       ncg     rms          rms(c)
DAV:   1    -0.649137189389E+03   -0.23383E-04   -0.10349E-03 12432   0.201E-01    0.495E-02
RMM:   2    -0.649137649804E+03   -0.46041E-03   -0.53583E-04  9182   0.836E-02    0.280E-01
RMM:   3    -0.649137221008E+03    0.42880E-03   -0.17792E-04  7697   0.584E-02    0.745E-02
RMM:   4    -0.649137185137E+03    0.35870E-04   -0.29329E-05  5870   0.245E-02    0.314E-02
RMM:   5    -0.649137180955E+03    0.41820E-05   -0.10583E-05  4779   0.174E-02
  23 F= -.64913718E+03 E0= -.64904816E+03  d E =-.407088E-04
 curvature:  -0.35 expect dE=-0.128E-03 dE for cont linesearch -0.150E-04
 ZBRENT: interpolating
 opt :   0.4578  next Energy=  -649.137192 (dE=-0.516E-04)
 bond charge predicted
       N       E                     dE             d eps       ncg     rms          rms(c)
DAV:   1    -0.649137198583E+03   -0.13445E-04   -0.87051E-04 12576   0.190E-01    0.479E-02
RMM:   2    -0.649137527966E+03   -0.32938E-03   -0.47165E-04  9556   0.756E-02    0.218E-01
RMM:   3    -0.649137223145E+03    0.30482E-03   -0.14069E-04  7479   0.530E-02    0.688E-02
RMM:   4    -0.649137189330E+03    0.33816E-04   -0.28167E-05  5864   0.227E-02    0.205E-02
RMM:   5    -0.649137190401E+03   -0.10718E-05   -0.11327E-05  4628   0.187E-02
  24 F= -.64913719E+03 E0= -.64904816E+03  d E =-.501548E-04
 curvature:  -0.08 expect dE=-0.141E-04 dE for cont linesearch -0.648E-07
 trial: gam= 0.67310 g(F)=  0.917E-04 g(S)=  0.870E-04 ort =-0.153E-04 (trialstep = 0.263E+00)
 search vector abs. value=  0.287E-03
 bond charge predicted
       N       E                     dE             d eps       ncg     rms          rms(c)
DAV:   1    -0.649137085429E+03    0.10390E-03   -0.45257E-03 10656   0.463E-01    0.283E-02
RMM:   2    -0.649137293049E+03   -0.20762E-03   -0.14654E-03 12722   0.978E-02    0.109E-01
RMM:   3    -0.649137221284E+03    0.71766E-04   -0.12587E-04  6976   0.406E-02    0.339E-02
RMM:   4    -0.649137216795E+03    0.44887E-05   -0.20496E-05  5647   0.203E-02
  25 F= -.64913722E+03 E0= -.64904819E+03  d E =-.263935E-04
 trial-energy change:   -0.000026  1 .order   -0.000029   -0.000044   -0.000013
 step:   0.3764(harm=  0.3764)  dis= 0.00036  next Energy=  -649.137222 (dE=-0.317E-04)
 reached required accuracy - stopping structural energy minimisation
