   2   2   0   0
  0.4915241E+02  0.4448472E-09  0.4448472E-09  0.4967675E-09  0.5000000E-15
  1.000000000000000E-004
  CAR 
 N                                       
     20.91323998    -28.88385044  301     -8.75752639      1.00000000
    -28.884  0.0000E+00  0.0000E+00
    -28.718  0.0000E+00  0.0000E+00
    -28.552  0.0000E+00  0.0000E+00
    -28.386  0.0000E+00  0.0000E+00
    -28.220  0.0000E+00  0.0000E+00
    -28.054  0.0000E+00  0.0000E+00
    -27.888  0.0000E+00  0.0000E+00
    -27.722  0.0000E+00  0.0000E+00
    -27.556  0.0000E+00  0.0000E+00
    -27.390  0.0000E+00  0.0000E+00
    -27.224  0.0000E+00  0.0000E+00
    -27.058  0.0000E+00  0.0000E+00
    -26.892  0.0000E+00  0.0000E+00
    -26.726  0.0000E+00  0.0000E+00
    -26.560  0.0000E+00  0.2000E-01
    -26.394  0.0000E+00  0.2000E-01
    -26.228  0.0000E+00  0.2000E-01
    -26.062  0.0000E+00  0.2000E-01
    -25.896  0.0000E+00  0.2000E-01
    -25.730  0.0000E+00  0.2000E-01
    -25.564  0.0000E+00  0.2000E-01
    -25.398  0.0000E+00  0.2000E-01
    -25.232  0.0000E+00  0.2000E-01
    -25.066  0.0000E+00  0.2000E-01
    -24.900  0.0000E+00  0.2000E-01
    -24.734  0.0000E+00  0.2000E-01
    -24.568  0.0000E+00  0.2000E-01
    -24.402  0.0000E+00  0.2000E-01
    -24.236  0.0000E+00  0.2000E-01
    -24.070  0.0000E+00  0.2000E-01
    -23.904  0.0000E+00  0.2000E-01
    -23.738  0.0000E+00  0.2000E-01
    -23.572  0.0000E+00  0.2000E-01
    -23.406  0.0000E+00  0.2000E-01
    -23.240  0.0000E+00  0.2000E-01
    -23.074  0.0000E+00  0.2000E-01
    -22.908  0.0000E+00  0.2000E-01
    -22.742  0.0000E+00  0.2000E-01
    -22.576  0.0000E+00  0.2000E-01
    -22.410  0.0000E+00  0.2000E-01
    -22.244  0.0000E+00  0.2000E-01
    -22.078  0.0000E+00  0.2000E-01
    -21.912  0.0000E+00  0.2000E-01
    -21.746  0.0000E+00  0.2000E-01
    -21.580  0.0000E+00  0.2000E-01
    -21.414  0.0000E+00  0.2000E-01
    -21.248  0.0000E+00  0.2000E-01
    -21.082  0.0000E+00  0.2000E-01
    -20.916  0.0000E+00  0.2000E-01
    -20.750  0.0000E+00  0.2000E-01
    -20.584  0.0000E+00  0.2000E-01
    -20.418  0.0000E+00  0.2000E-01
    -20.252  0.0000E+00  0.2000E-01
    -20.086  0.0000E+00  0.2000E-01
    -19.920  0.0000E+00  0.2000E-01
    -19.754  0.0000E+00  0.2000E-01
    -19.588  0.0000E+00  0.2000E-01
    -19.422  0.0000E+00  0.2000E-01
    -19.256  0.0000E+00  0.2000E-01
    -19.090  0.0000E+00  0.2000E-01
    -18.924  0.0000E+00  0.2000E-01
    -18.758  0.0000E+00  0.2000E-01
    -18.592  0.0000E+00  0.2000E-01
    -18.426  0.0000E+00  0.2000E-01
    -18.260  0.0000E+00  0.2000E-01
    -18.094  0.0000E+00  0.2000E-01
    -17.928  0.0000E+00  0.2000E-01
    -17.763  0.0000E+00  0.2000E-01
    -17.597  0.0000E+00  0.2000E-01
    -17.431  0.0000E+00  0.2000E-01
    -17.265  0.0000E+00  0.2000E-01
    -17.099  0.0000E+00  0.2000E-01
    -16.933  0.0000E+00  0.2000E-01
    -16.767  0.0000E+00  0.2000E-01
    -16.601  0.0000E+00  0.2000E-01
    -16.435  0.0000E+00  0.2000E-01
    -16.269  0.0000E+00  0.2000E-01
    -16.103  0.0000E+00  0.2000E-01
    -15.937  0.0000E+00  0.2000E-01
    -15.771  0.0000E+00  0.2000E-01
    -15.605  0.0000E+00  0.2000E-01
    -15.439  0.0000E+00  0.2000E-01
    -15.273  0.0000E+00  0.2000E-01
    -15.107  0.0000E+00  0.2000E-01
    -14.941  0.0000E+00  0.2000E-01
    -14.775  0.0000E+00  0.2000E-01
    -14.609  0.0000E+00  0.2000E-01
    -14.443  0.0000E+00  0.2000E-01
    -14.277  0.0000E+00  0.2000E-01
    -14.111  0.0000E+00  0.2000E-01
    -13.945  0.0000E+00  0.2000E-01
    -13.779  0.0000E+00  0.2000E-01
    -13.613  0.0000E+00  0.2000E-01
    -13.447  0.0000E+00  0.2000E-01
    -13.281  0.0000E+00  0.2000E-01
    -13.115  0.0000E+00  0.2000E-01
    -12.949  0.0000E+00  0.2000E-01
    -12.783  0.0000E+00  0.2000E-01
    -12.617  0.0000E+00  0.2000E-01
    -12.451  0.0000E+00  0.2000E-01
    -12.285  0.0000E+00  0.2000E-01
    -12.119  0.0000E+00  0.2000E-01
    -11.953  0.0000E+00  0.4000E-01
    -11.787  0.0000E+00  0.4000E-01
    -11.621  0.0000E+00  0.4000E-01
    -11.455  0.0000E+00  0.4000E-01
    -11.289  0.0000E+00  0.4000E-01
    -11.123  0.0000E+00  0.4000E-01
    -10.957  0.0000E+00  0.4000E-01
    -10.791  0.0000E+00  0.4000E-01
    -10.625  0.0000E+00  0.4000E-01
    -10.459  0.0000E+00  0.4000E-01
    -10.293  0.0000E+00  0.4000E-01
    -10.127  0.0000E+00  0.4000E-01
     -9.961  0.3095E-04  0.4001E-01
     -9.795  0.0000E+00  0.8000E-01
     -9.629  0.0000E+00  0.8000E-01
     -9.463  0.0000E+00  0.8000E-01
     -9.297  0.0000E+00  0.8000E-01
     -9.131  0.0000E+00  0.8000E-01
     -8.965  0.0000E+00  0.8000E-01
     -8.799  0.1205E+00  0.1000E+00
     -8.633  0.0000E+00  0.1000E+00
     -8.467  0.0000E+00  0.1000E+00
     -8.301  0.0000E+00  0.1000E+00
     -8.135  0.0000E+00  0.1000E+00
     -7.969  0.0000E+00  0.1000E+00
     -7.803  0.0000E+00  0.1000E+00
     -7.637  0.0000E+00  0.1000E+00
     -7.471  0.0000E+00  0.1000E+00
     -7.305  0.0000E+00  0.1000E+00
     -7.139  0.0000E+00  0.1000E+00
     -6.973  0.0000E+00  0.1000E+00
     -6.807  0.0000E+00  0.1000E+00
     -6.641  0.0000E+00  0.1000E+00
     -6.475  0.0000E+00  0.1000E+00
     -6.309  0.0000E+00  0.1000E+00
     -6.143  0.0000E+00  0.1000E+00
     -5.977  0.0000E+00  0.1000E+00
     -5.811  0.0000E+00  0.1000E+00
     -5.645  0.0000E+00  0.1000E+00
     -5.479  0.0000E+00  0.1000E+00
     -5.313  0.0000E+00  0.1000E+00
     -5.147  0.0000E+00  0.1000E+00
     -4.981  0.0000E+00  0.1000E+00
     -4.815  0.0000E+00  0.1000E+00
     -4.649  0.0000E+00  0.1000E+00
     -4.483  0.0000E+00  0.1000E+00
     -4.317  0.0000E+00  0.1000E+00
     -4.151  0.0000E+00  0.1000E+00
     -3.985  0.0000E+00  0.1000E+00
     -3.819  0.0000E+00  0.1000E+00
     -3.653  0.0000E+00  0.1000E+00
     -3.487  0.0000E+00  0.1000E+00
     -3.321  0.0000E+00  0.1000E+00
     -3.155  0.0000E+00  0.1000E+00
     -2.989  0.0000E+00  0.1000E+00
     -2.823  0.0000E+00  0.1000E+00
     -2.657  0.0000E+00  0.1000E+00
     -2.491  0.0000E+00  0.1000E+00
     -2.325  0.0000E+00  0.1000E+00
     -2.159  0.0000E+00  0.1000E+00
     -1.993  0.0000E+00  0.1000E+00
     -1.827  0.0000E+00  0.1000E+00
     -1.661  0.0000E+00  0.1000E+00
     -1.495  0.0000E+00  0.1000E+00
     -1.329  0.0000E+00  0.1000E+00
     -1.163  0.0000E+00  0.1000E+00
     -0.997  0.0000E+00  0.1000E+00
     -0.831  0.0000E+00  0.1000E+00
     -0.665  0.0000E+00  0.1000E+00
     -0.500  0.0000E+00  0.1000E+00
     -0.334  0.0000E+00  0.1400E+00
     -0.168  0.0000E+00  0.1400E+00
     -0.002  0.0000E+00  0.1400E+00
      0.164  0.0000E+00  0.1400E+00
      0.330  0.0000E+00  0.1400E+00
      0.496  0.0000E+00  0.1400E+00
      0.662  0.1085E+00  0.1580E+00
      0.828  0.0000E+00  0.1600E+00
      0.994  0.0000E+00  0.1600E+00
      1.160  0.0000E+00  0.1600E+00
      1.326  0.0000E+00  0.1600E+00
      1.492  0.0000E+00  0.1600E+00
      1.658  0.0000E+00  0.1600E+00
      1.824  0.0000E+00  0.1600E+00
      1.990  0.0000E+00  0.1600E+00
      2.156  0.0000E+00  0.1600E+00
      2.322  0.0000E+00  0.1600E+00
      2.488  0.0000E+00  0.1600E+00
      2.654  0.0000E+00  0.1600E+00
      2.820  0.0000E+00  0.1600E+00
      2.986  0.0000E+00  0.1600E+00
      3.152  0.0000E+00  0.1600E+00
      3.318  0.0000E+00  0.1600E+00
      3.484  0.0000E+00  0.1600E+00
      3.650  0.0000E+00  0.1600E+00
      3.816  0.0000E+00  0.1600E+00
      3.982  0.0000E+00  0.1600E+00
      4.148  0.0000E+00  0.1600E+00
      4.314  0.0000E+00  0.1600E+00
      4.480  0.0000E+00  0.1600E+00
      4.646  0.0000E+00  0.1600E+00
      4.812  0.0000E+00  0.1600E+00
      4.978  0.0000E+00  0.1800E+00
      5.144  0.0000E+00  0.1800E+00
      5.310  0.0000E+00  0.1800E+00
      5.476  0.0000E+00  0.1800E+00
      5.642  0.0000E+00  0.2000E+00
      5.808  0.0000E+00  0.2000E+00
      5.974  0.0000E+00  0.2000E+00
      6.140  0.0000E+00  0.2000E+00
      6.306  0.0000E+00  0.2000E+00
      6.472  0.1200E+00  0.2199E+00
      6.638  0.0000E+00  0.2200E+00
      6.804  0.0000E+00  0.2200E+00
      6.970  0.0000E+00  0.2200E+00
      7.136  0.0000E+00  0.2200E+00
      7.302  0.0000E+00  0.2200E+00
      7.468  0.0000E+00  0.2600E+00
      7.634  0.0000E+00  0.2600E+00
      7.800  0.0000E+00  0.2600E+00
      7.966  0.0000E+00  0.2600E+00
      8.132  0.0000E+00  0.2600E+00
      8.298  0.0000E+00  0.2600E+00
      8.464  0.0000E+00  0.2600E+00
      8.630  0.0000E+00  0.2600E+00
      8.796  0.0000E+00  0.2600E+00
      8.962  0.0000E+00  0.2600E+00
      9.128  0.0000E+00  0.2600E+00
      9.294  0.0000E+00  0.2600E+00
      9.460  0.0000E+00  0.2600E+00
      9.626  0.0000E+00  0.2600E+00
      9.792  0.0000E+00  0.2600E+00
      9.958  0.0000E+00  0.2600E+00
     10.124  0.0000E+00  0.2600E+00
     10.290  0.0000E+00  0.2800E+00
     10.456  0.0000E+00  0.2800E+00
     10.622  0.0000E+00  0.2800E+00
     10.788  0.0000E+00  0.2800E+00
     10.954  0.0000E+00  0.2800E+00
     11.120  0.0000E+00  0.2800E+00
     11.286  0.3883E-03  0.2801E+00
     11.452  0.0000E+00  0.3000E+00
     11.618  0.0000E+00  0.3000E+00
     11.784  0.2748E-01  0.3046E+00
     11.950  0.0000E+00  0.3200E+00
     12.116  0.1357E-09  0.3200E+00
     12.282  0.2410E+00  0.3800E+00
     12.448  0.0000E+00  0.3800E+00
     12.614  0.0000E+00  0.3800E+00
     12.780  0.0000E+00  0.3800E+00
     12.946  0.0000E+00  0.3800E+00
     13.112  0.0000E+00  0.4000E+00
     13.278  0.0000E+00  0.4000E+00
     13.444  0.0000E+00  0.4000E+00
     13.610  0.0000E+00  0.4000E+00
     13.776  0.0000E+00  0.4400E+00
     13.942  0.0000E+00  0.4400E+00
     14.108  0.0000E+00  0.4400E+00
     14.274  0.0000E+00  0.4400E+00
     14.440  0.1205E+00  0.4600E+00
     14.606  0.0000E+00  0.4600E+00
     14.772  0.0000E+00  0.4600E+00
     14.938  0.0000E+00  0.4600E+00
     15.104  0.0000E+00  0.4600E+00
     15.270  0.0000E+00  0.4600E+00
     15.436  0.0000E+00  0.4600E+00
     15.602  0.0000E+00  0.4600E+00
     15.768  0.2406E+00  0.4999E+00
     15.934  0.0000E+00  0.5000E+00
     16.100  0.0000E+00  0.5000E+00
     16.266  0.0000E+00  0.5000E+00
     16.432  0.0000E+00  0.5000E+00
     16.597  0.0000E+00  0.5000E+00
     16.763  0.0000E+00  0.5000E+00
     16.929  0.0000E+00  0.5000E+00
     17.095  0.0000E+00  0.5200E+00
     17.261  0.0000E+00  0.5200E+00
     17.427  0.0000E+00  0.5200E+00
     17.593  0.0000E+00  0.5200E+00
     17.759  0.0000E+00  0.5200E+00
     17.925  0.1070E-15  0.5200E+00
     18.091  0.0000E+00  0.5400E+00
     18.257  0.0000E+00  0.5400E+00
     18.423  0.0000E+00  0.5400E+00
     18.589  0.0000E+00  0.5400E+00
     18.755  0.0000E+00  0.5600E+00
     18.921  0.0000E+00  0.5600E+00
     19.087  0.0000E+00  0.5600E+00
     19.253  0.0000E+00  0.5600E+00
     19.419  0.0000E+00  0.5600E+00
     19.585  0.0000E+00  0.5600E+00
     19.751  0.0000E+00  0.5600E+00
     19.917  0.0000E+00  0.5600E+00
     20.083  0.0000E+00  0.5600E+00
     20.249  0.0000E+00  0.5600E+00
     20.415  0.0000E+00  0.5600E+00
     20.581  0.0000E+00  0.5600E+00
     20.747  0.0000E+00  0.5600E+00
     20.913  0.0000E+00  0.5600E+00
