 vasp.6.4.3 19Mar24 (build Sep 18 2024 11:30:23) complex                        
  
 executed on             LinuxIFC date 2026.07.07  17:16:19
 running   28 mpi-ranks, on    1 nodes
 distrk:  each k-point on   28 cores,    1 groups
 distr:  one band on NCORE=   1 cores,   28 groups


--------------------------------------------------------------------------------------------------------


 INCAR:
   SYSTEM = N
   ISTART = 0
   ICHARG = 2
   PREC = Accurate
   LREAL = .F.
   IBRION = 2
   ISIF = 2
   NSW = 100
   POTIM = 0.5
   EDIFFG = -0.01
   ENCUT = 400
   NELM = 60
   EDIFF = 1E-6
   LCHARG = .F.
   LWAVE = .F.
   ISMEAR = 0
   SIGMA = 0.005
   ALGO = Normal

 POTCAR:   PAW_PBE N 08Apr2002                    
 -----------------------------------------------------------------------------
|                                                                             |
|           W    W    AA    RRRRR   N    N  II  N    N   GGGG   !!!           |
|           W    W   A  A   R    R  NN   N  II  NN   N  G    G  !!!           |
|           W    W  A    A  R    R  N N  N  II  N N  N  G       !!!           |
|           W WW W  AAAAAA  RRRRR   N  N N  II  N  N N  G  GGG   !            |
|           WW  WW  A    A  R   R   N   NN  II  N   NN  G    G                |
|           W    W  A    A  R    R  N    N  II  N    N   GGGG   !!!           |
|                                                                             |
|     For optimal performance we recommend to set                             |
|       NCORE = 2 up to number-of-cores-per-socket                            |
|     NCORE specifies how many cores store one orbital (NPAR=cpu/NCORE).      |
|     This setting can greatly improve the performance of VASP for DFT.       |
|     The default, NCORE=1 might be grossly inefficient on modern             |
|     multi-core architectures or massively parallel machines. Do your        |
|     own testing! More info at https://www.vasp.at/wiki/index.php/NCORE      |
|     Unfortunately you need to use the default for GW and RPA                |
|     calculations (for HF NCORE is supported but not extensively tested      |
|     yet).                                                                   |
|                                                                             |
 -----------------------------------------------------------------------------

 POTCAR:   PAW_PBE N 08Apr2002                    
   VRHFIN =N: s2p3                                                                                  
   LEXCH  = PE                                                                                      
   EATOM  =   264.5486 eV,   19.4438 Ry                                                             
                                                                                                    
   TITEL  = PAW_PBE N 08Apr2002                                                                     
   LULTRA =        F    use ultrasoft PP ?                                                          
   IUNSCR =        0    unscreen: 0-lin 1-nonlin 2-no                                               
   RPACOR =     .000    partial core radius                                                         
   POMASS =   14.001; ZVAL   =    5.000    mass and valenz                                          
   RCORE  =    1.500    outmost cutoff radius                                                       
   RWIGS  =    1.400; RWIGS  =     .741    wigner-seitz radius (au A)                               
   ENMAX  =  400.000; ENMIN  =  300.000 eV                                                          
   ICORE  =        2    local potential                                                             
   LCOR   =        T    correct aug charges                                                         
   LPAW   =        T    paw PP                                                                      
   EAUG   =  627.112                                                                                
   DEXC   =     .000                                                                                
   RMAX   =    2.247    core radius for proj-oper                                                   
   RAUG   =    1.300    factor for augmentation sphere                                              
   RDEP   =    1.514    radius for radial grids                                                     
   QCUT   =   -5.562; QGAM   =   11.124    optimization parameters                                  
                                                                                                    
   Description                                                                                      
     l     E      TYP  RCUT    TYP  RCUT                                                            
     0   .000     23  1.200                                                                         
     0   .000     23  1.200                                                                         
     1   .000     23  1.500                                                                         
     1   .700     23  1.500                                                                         
     2   .000      7  1.500                                                                         
  local pseudopotential read in
  atomic valenz-charges read in
  non local Contribution for L=           0  read in
    real space projection operators read in
  non local Contribution for L=           0  read in
    real space projection operators read in
  non local Contribution for L=           1  read in
    real space projection operators read in
  non local Contribution for L=           1  read in
    real space projection operators read in
    PAW grid and wavefunctions read in
 
   number of l-projection  operators is LMAX  =           4
   number of lm-projection operators is LMMAX =           8
 
 PAW_PBE N 08Apr2002                    :
 energy of atom  1       EATOM= -264.5486
 kinetic energy error for atom=    0.0736 (will be added to EATOM!!)
 
 
 POSCAR: 3D\Atomistic
  positions in direct lattice
  velocities in cartesian coordinates


 exchange-correlation table for PE
   RHO(1)=    0.500       N(1)  =     2000
   RHO(2)=  100.500       N(2)  =     4000
 


--------------------------------------------------------------------------------------------------------


 ion  position               nearest neighbor table
   1  0.500  0.500  0.112-   2 1.12
   2  0.500  0.500  0.888-   1 1.12
 
  LATTYP: Found a simple tetragonal cell.
 ALAT       =     4.4484717741
 C/A-ratio  =     1.1167149365
  
  Lattice vectors:
  
 A1 = (   4.4484717741,   0.0000000000,   0.0000000000)
 A2 = (   0.0000000000,   4.4484717741,   0.0000000000)
 A3 = (   0.0000000000,   0.0000000000,   4.9676748747)


Analysis of symmetry for initial positions (statically):
=====================================================================
 Subroutine PRICEL returns:
 Original cell was already a primitive cell.
 

 Routine SETGRP: Setting up the symmetry group for a 
 simple tetragonal supercell.


 Subroutine GETGRP returns: Found 16 space group operations
 (whereof 16 operations were pure point group operations)
 out of a pool of 16 trial point group operations.


The static configuration has the point symmetry D_4h.


Analysis of symmetry for dynamics (positions and initial velocities):
=====================================================================
 Subroutine PRICEL returns:
 Original cell was already a primitive cell.
 

 Routine SETGRP: Setting up the symmetry group for a 
 simple tetragonal supercell.


 Subroutine GETGRP returns: Found 16 space group operations
 (whereof 16 operations were pure point group operations)
 out of a pool of 16 trial point group operations.


The dynamic configuration has the point symmetry D_4h.


 Subroutine INISYM returns: Found 16 space group operations
 (whereof 16 operations are pure point group operations),
 and found     1 'primitive' translations


----------------------------------------------------------------------------------------

                                     Primitive cell                                     

  volume of cell :      98.3048

  direct lattice vectors                    reciprocal lattice vectors
     4.448471774  0.000000000  0.000000000     0.224796301  0.000000000  0.000000000
     0.000000000  4.448471774  0.000000000     0.000000000  0.224796301  0.000000000
     0.000000000  0.000000000  4.967674875     0.000000000  0.000000000  0.201301419

  length of vectors
     4.448471774  4.448471774  4.967674875     0.224796301  0.224796301  0.201301419

  position of ions in fractional coordinates (direct lattice)
     0.500000000  0.500000000  0.112431760
     0.500000000  0.500000000  0.887568240

  ion indices of the primitive-cell ions
   primitive index   ion index
                 1           1
                 2           2

----------------------------------------------------------------------------------------

 
 
 KPOINTS: HECN                                    

Automatic generation of k-mesh.
 Grid dimensions read from file:
 generate k-points for:    1    1    1

 Generating k-lattice:

  Cartesian coordinates                     Fractional coordinates (reciprocal lattice)
     0.224796301  0.000000000  0.000000000     1.000000000  0.000000000  0.000000000
     0.000000000  0.224796301  0.000000000     0.000000000  1.000000000  0.000000000
     0.000000000  0.000000000  0.201301419     0.000000000  0.000000000  1.000000000

  Length of vectors
     0.224796301  0.224796301  0.201301419

  Shift w.r.t. Gamma in fractional coordinates (k-lattice)
     0.000000000  0.000000000  0.000000000

 
 Subroutine IBZKPT returns following result:
 ===========================================
 
 Found      1 irreducible k-points:
 
 Following reciprocal coordinates:
            Coordinates               Weight
  0.000000  0.000000  0.000000      1.000000
 
 Following cartesian coordinates:
            Coordinates               Weight
  0.000000  0.000000  0.000000      1.000000
 


--------------------------------------------------------------------------------------------------------




 Dimension of arrays:
   k-points           NKPTS =      1   k-points in BZ     NKDIM =      1   number of bands    NBANDS=     28
   number of dos      NEDOS =    301   number of ions     NIONS =      2
   non local maximal  LDIM  =      4   non local SUM 2l+1 LMDIM =      8
   total plane-waves  NPLWV =  28800
   max r-space proj   IRMAX =      1   max aug-charges    IRDMAX=   3804
   dimension x,y,z NGX =    30 NGY =   30 NGZ =   32
   dimension x,y,z NGXF=    60 NGYF=   60 NGZF=   64
   support grid    NGXF=    60 NGYF=   60 NGZF=   64
   ions per type =               2
   NGX,Y,Z   is equivalent  to a cutoff of  11.21, 11.21, 10.71 a.u.
   NGXF,Y,Z  is equivalent  to a cutoff of  22.42, 22.42, 21.42 a.u.

 SYSTEM =  N                                       
 POSCAR =  3D\Atomistic                            

 Startparameter for this run:
   NWRITE =      2    write-flag & timer
   PREC   = accura    normal or accurate (medium, high low for compatibility)
   ISTART =      0    job   : 0-new  1-cont  2-samecut
   ICHARG =      2    charge: 1-file 2-atom 10-const
   ISPIN  =      1    spin polarized calculation?
   LNONCOLLINEAR =      F non collinear calculations
   LSORBIT =      F    spin-orbit coupling
   INIWAV =      1    electr: 0-lowe 1-rand  2-diag
   LASPH  =      F    aspherical Exc in radial PAW
 Electronic Relaxation 1
   ENCUT  =  400.0 eV  29.40 Ry    5.42 a.u.   7.25  7.25  8.10*2*pi/ulx,y,z
   ENINI  =  400.0     initial cutoff
   ENAUG  =  627.1 eV  augmentation charge cutoff
   NELM   =     60;   NELMIN=  2; NELMDL= -5     # of ELM steps 
   EDIFF  = 0.1E-05   stopping-criterion for ELM
   LREAL  =      F    real-space projection
   NLSPLINE    = F    spline interpolate recip. space projectors
   LCOMPAT=      F    compatible to vasp.4.4
   GGA_COMPAT  = T    GGA compatible to vasp.4.4-vasp.4.6
   LMAXPAW     = -100 max onsite density
   LMAXMIX     =    2 max onsite mixed and CHGCAR
   VOSKOWN=      0    Vosko Wilk Nusair interpolation
   ROPT   =    0.00000
 Ionic relaxation
   EDIFFG = -.1E-01   stopping-criterion for IOM
   NSW    =    100    number of steps for IOM
   NBLOCK =      1;   KBLOCK =    100    inner block; outer block 
   IBRION =      2    ionic relax: 0-MD 1-quasi-New 2-CG
   NFREE  =      1    steps in history (QN), initial steepest desc. (CG)
   ISIF   =      2    stress and relaxation
   IWAVPR =     11    prediction:  0-non 1-charg 2-wave 3-comb
   ISYM   =      2    0-nonsym 1-usesym 2-fastsym
   LCORR  =      T    Harris-Foulkes like correction to forces

   POTIM  = 0.5000    time-step for ionic-motion
   TEIN   =    0.0    initial temperature
   TEBEG  =    0.0;   TEEND  =   0.0 temperature during run
   SMASS  =  -3.00    Nose mass-parameter (am)
   estimated Nose-frequenzy (Omega)   =  0.10E-29 period in steps = 0.13E+47 mass=  -0.452E-27a.u.
   SCALEE = 1.0000    scale energy and forces
   NPACO  =    256;   APACO  = 10.0  distance and # of slots for P.C.
   PSTRESS=    0.0 pullay stress

  Mass of Ions in am
   POMASS =  14.00
  Ionic Valenz
   ZVAL   =   5.00
  Atomic Wigner-Seitz radii
   RWIGS  =  -1.00
  virtual crystal weights 
   VCA    =   1.00
   NELECT =      10.0000    total number of electrons
   NUPDOWN=      -1.0000    fix difference up-down

 DOS related values:
   EMIN   =  10.00;   EMAX   =-10.00  energy-range for DOS
   EFERMI =   0.00;   METHOD = LEGACY      
   ISMEAR =     0;   SIGMA  =   0.01  broadening in eV -4-tet -1-fermi 0-gaus

 Electronic relaxation 2 (details)
   IALGO  =     38    algorithm
   LDIAG  =      T    sub-space diagonalisation (order eigenvalues)
   LSUBROT=      F    optimize rotation matrix (better conditioning)
   TURBO    =      0    0=normal 1=particle mesh
   IRESTART =      0    0=no restart 2=restart with 2 vectors
   NREBOOT  =      0    no. of reboots
   NMIN     =      0    reboot dimension
   EREF     =   0.00    reference energy to select bands
   IMIX   =      4    mixing-type and parameters
     AMIX     =   0.40;   BMIX     =  1.00
     AMIX_MAG =   1.60;   BMIX_MAG =  1.00
     AMIN     =   0.10
     WC   =   100.;   INIMIX=   1;  MIXPRE=   1;  MAXMIX= -45

 Intra band minimization:
   WEIMIN = 0.0010     energy-eigenvalue tresh-hold
   EBREAK =  0.89E-08  absolut break condition
   DEPER  =   0.30     relativ break condition  

   TIME   =   0.40     timestep for ELM

  volume/ion in A,a.u.               =      49.15       331.70
  Fermi-wavevector in a.u.,A,eV,Ry     =   0.764217  1.444160  7.946173  0.584027
  Thomas-Fermi vector in A             =   1.864070
 
 Write flags
   LWAVE        =      F    write WAVECAR
   LDOWNSAMPLE  =      F    k-point downsampling of WAVECAR
   LCHARG       =      F    write CHGCAR
   LVTOT        =      F    write LOCPOT, total local potential
   LVHAR        =      F    write LOCPOT, Hartree potential only
   WRT_POTENTIAL= false  ! write potential to hdf5 file
   LELF         =      F    write electronic localiz. function (ELF)
   LORBIT       =      0    0 simple, 1 ext, 2 COOP (PROOUT), +10 PAW based schemes


 Dipole corrections
   LMONO      =      F    monopole corrections only (constant potential shift)
   LDIPOL     =      F    correct potential (dipole corrections)
   IDIPOL     =      0    1-x, 2-y, 3-z, 4-all directions 
   EPSILON    =  1.0000000 bulk dielectric constant
   LVACPOTAV  =      F  vacuum potentials using an averaging scheme for the charge density
   VACPOTFLAT =  0.1000000 required flatness to determine vacuum potential
 Exchange correlation treatment:
   GGA     = PE    functional components
   XC_C    = 1    coefficients multiplying the functional components
   LIBXC   =     F    Libxc                    
   VOSKOWN =     0    Vosko Wilk Nusair interpolation
   LHFCALC =     F    Hartree Fock is set to
   LHFONE  =     F    Hartree Fock one center treatment
   AEXX    =    0.0000 exact exchange contribution

 Parameters of functionals:
   PE:
     No parameter
 
 Van der Waals corrections
   IVDW    =     0    specifies the selected vdW correction

 Linear response parameters
   LEPSILON=     F    determine dielectric tensor
   LRPA    =     F    only Hartree local field effects (RPA)
   LNABLA  =     F    use nabla operator in PAW spheres
   LVEL    =     F    velocity operator in full k-point grid
   CSHIFT  =0.1000    complex shift for real part using Kramers Kronig
   OMEGAMAX=  -1.0    maximum frequency
   DEG_THRESHOLD= 0.2000000E-02 threshold for treating states as degnerate
   RTIME   =   -0.100 relaxation time in fs
  (WPLASMAI=    0.000 imaginary part of plasma frequency in eV, 0.658/RTIME)
   DFIELD  = 0.0000000 0.0000000 0.0000000 field for delta impulse in time
 
  Optional k-point grid parameters
   LKPOINTS_OPT  =     F    use optional k-point grid
   KPOINTS_OPT_MODE=     1    mode for optional k-point grid
 
 Orbital magnetization related:
   ORBITALMAG=     F  switch on orbital magnetization
   LCHIMAG   =     F  perturbation theory with respect to B field
   DQ        =  0.001000  dq finite difference perturbation B field
   LLRAUG    =     F  two centre corrections for induced B field
   LBONE     =     F  B-component reconstruction in AE one-centre
   LVGVCALC  =     T  calculate vGv susceptibility
   LVGVAPPL  =     F  apply vGv susceptibility instead of pGv for G=0

 Random number generation:
   RANDOM_GENERATOR = DEFAULT
   PCG_SEED         = not used


--------------------------------------------------------------------------------------------------------


 conjugate gradient relaxation of ions
 charge density and potential will be updated during run
 non-spin polarized calculation
 Variant of blocked Davidson
 Davidson routine will perform the subspace rotation
 perform sub-space diagonalisation
    after iterative eigenvector-optimisation
 modified Broyden-mixing scheme, WC =      100.0
 initial mixing is a Kerker type mixing with AMIX =  0.4000 and BMIX =      1.0000
 Hartree-type preconditioning will be used
 using additional bands           23
 reciprocal scheme for non local part
 calculate Harris-corrections to forces 
   (improved forces if not selfconsistent)
 use gradient corrections 
 use of overlap-Matrix (Vanderbilt PP)
 Gauss-broadening in eV      SIGMA  =   0.01


--------------------------------------------------------------------------------------------------------


  energy-cutoff  :      400.00
  volume of cell :       98.30
      direct lattice vectors                 reciprocal lattice vectors
     4.448471774  0.000000000  0.000000000     0.224796301  0.000000000  0.000000000
     0.000000000  4.448471774  0.000000000     0.000000000  0.224796301  0.000000000
     0.000000000  0.000000000  4.967674875     0.000000000  0.000000000  0.201301419

  length of vectors
     4.448471774  4.448471774  4.967674875     0.224796301  0.224796301  0.201301419


 
 k-points in units of 2pi/SCALE and weight: HECN                                    
   0.00000000  0.00000000  0.00000000       1.000
 
 k-points in reciprocal lattice and weights: HECN                                    
   0.00000000  0.00000000  0.00000000       1.000
 
 position of ions in fractional coordinates (direct lattice) 
   0.50000000  0.50000000  0.11243176
   0.50000000  0.50000000  0.88756824
 
 position of ions in cartesian coordinates  (Angst):
   2.22423589  2.22423589  0.55852443
   2.22423589  2.22423589  4.40915045
 


--------------------------------------------------------------------------------------------------------


 k-point     1 :   0.0000 0.0000 0.0000  plane waves:    1761

 maximum and minimum number of plane-waves per node :      1761     1761

 maximum number of plane-waves:      1761
 maximum index in each direction: 
   IXMAX=    7   IYMAX=    7   IZMAX=    8
   IXMIN=   -7   IYMIN=   -7   IZMIN=   -8


 serial   3D FFT for wavefunctions
 parallel 3D FFT for charge:
    minimum data exchange during FFTs selected (reduces bandwidth)


 total amount of memory used by VASP MPI-rank0    32433. kBytes
=======================================================================

   base      :      30000. kBytes
   nonl-proj :        169. kBytes
   fftplans  :        500. kBytes
   grid      :       1730. kBytes
   one-center:          6. kBytes
   wavefun   :         28. kBytes
 
     INWAV:  cpu time      0.0000: real time      0.0000
 Broyden mixing: mesh for mixing (old mesh)
   NGX = 15   NGY = 15   NGZ = 17
  (NGX  = 60   NGY  = 60   NGZ  = 64)
  gives a total of   3825 points

 initial charge density was supplied:
 charge density of overlapping atoms calculated
 number of electron      10.0000000 magnetization 
 keeping initial charge density in first step


--------------------------------------------------------------------------------------------------------


 Maximum index for augmentation-charges          264 (set IRDMAX)


--------------------------------------------------------------------------------------------------------


 First call to EWALD:  gamma=   0.384
 Maximum number of real-space cells 3x 3x 3
 Maximum number of reciprocal cells 3x 3x 3

    FEWALD:  cpu time      0.0034: real time      0.0036


--------------------------------------- Ionic step        1  -------------------------------------------




--------------------------------------- Iteration      1(   1)  ---------------------------------------


    POTLOK:  cpu time      0.0189: real time      0.0347
    SETDIJ:  cpu time      0.0031: real time      0.0051
     EDDAV:  cpu time      0.0283: real time      0.0353
       DOS:  cpu time      0.0014: real time      0.0047
    --------------------------------------------
      LOOP:  cpu time      0.0518: real time      0.0799

 eigenvalue-minimisations  :    56
 total energy-change (2. order) : 0.1814763E+02  (-0.4672029E+03)
 number of electron      10.0000000 magnetization 
 augmentation part       10.0000000 magnetization 

 Free energy of the ion-electron system (eV)
  ---------------------------------------------------
  alpha Z        PSCENC =         4.37930459
  Ewald energy   TEWEN  =      -111.28462631
  -Hartree energ DENC   =      -322.61242007
  -exchange      EXHF   =         0.00000000
  -V(xc)+E(xc)   XCENC  =        38.36077322
  PAW double counting   =       224.09405147     -226.85359355
  entropy T*S    EENTRO =        -0.00000000
  eigenvalues    EBANDS =      -116.88585979
  atomic energy  EATOM  =       528.95000483
  Solvation  Ediel_sol  =         0.00000000
  ---------------------------------------------------
  free energy    TOTEN  =        18.14763438 eV

  energy without entropy =       18.14763438  energy(sigma->0) =       18.14763438


--------------------------------------------------------------------------------------------------------




--------------------------------------- Iteration      1(   2)  ---------------------------------------


     EDDAV:  cpu time      0.0298: real time      0.3495
       DOS:  cpu time      0.0002: real time      0.0002
    --------------------------------------------
      LOOP:  cpu time      0.0299: real time      0.3497

 eigenvalue-minimisations  :    84
 total energy-change (2. order) :-0.3540255E+02  (-0.3540255E+02)
 number of electron      10.0000000 magnetization 
 augmentation part       10.0000000 magnetization 

 Free energy of the ion-electron system (eV)
  ---------------------------------------------------
  alpha Z        PSCENC =         4.37930459
  Ewald energy   TEWEN  =      -111.28462631
  -Hartree energ DENC   =      -322.61242007
  -exchange      EXHF   =         0.00000000
  -V(xc)+E(xc)   XCENC  =        38.36077322
  PAW double counting   =       224.09405147     -226.85359355
  entropy T*S    EENTRO =        -0.00000000
  eigenvalues    EBANDS =      -152.28841108
  atomic energy  EATOM  =       528.95000483
  Solvation  Ediel_sol  =         0.00000000
  ---------------------------------------------------
  free energy    TOTEN  =       -17.25491691 eV

  energy without entropy =      -17.25491691  energy(sigma->0) =      -17.25491691


--------------------------------------------------------------------------------------------------------




--------------------------------------- Iteration      1(   3)  ---------------------------------------


     EDDAV:  cpu time      0.0095: real time      0.0097
       DOS:  cpu time      0.0002: real time      0.0002
    --------------------------------------------
      LOOP:  cpu time      0.0097: real time      0.0098

 eigenvalue-minimisations  :    56
 total energy-change (2. order) :-0.1875633E+00  (-0.1875633E+00)
 number of electron      10.0000000 magnetization 
 augmentation part       10.0000000 magnetization 

 Free energy of the ion-electron system (eV)
  ---------------------------------------------------
  alpha Z        PSCENC =         4.37930459
  Ewald energy   TEWEN  =      -111.28462631
  -Hartree energ DENC   =      -322.61242007
  -exchange      EXHF   =         0.00000000
  -V(xc)+E(xc)   XCENC  =        38.36077322
  PAW double counting   =       224.09405147     -226.85359355
  entropy T*S    EENTRO =         0.00000000
  eigenvalues    EBANDS =      -152.47597439
  atomic energy  EATOM  =       528.95000483
  Solvation  Ediel_sol  =         0.00000000
  ---------------------------------------------------
  free energy    TOTEN  =       -17.44248022 eV

  energy without entropy =      -17.44248022  energy(sigma->0) =      -17.44248022


--------------------------------------------------------------------------------------------------------




--------------------------------------- Iteration      1(   4)  ---------------------------------------


     EDDAV:  cpu time      0.0145: real time      0.0147
       DOS:  cpu time      0.0002: real time      0.0002
    --------------------------------------------
      LOOP:  cpu time      0.0147: real time      0.0148

 eigenvalue-minimisations  :    84
 total energy-change (2. order) :-0.3897394E-03  (-0.3897394E-03)
 number of electron      10.0000000 magnetization 
 augmentation part       10.0000000 magnetization 

 Free energy of the ion-electron system (eV)
  ---------------------------------------------------
  alpha Z        PSCENC =         4.37930459
  Ewald energy   TEWEN  =      -111.28462631
  -Hartree energ DENC   =      -322.61242007
  -exchange      EXHF   =         0.00000000
  -V(xc)+E(xc)   XCENC  =        38.36077322
  PAW double counting   =       224.09405147     -226.85359355
  entropy T*S    EENTRO =         0.00000000
  eigenvalues    EBANDS =      -152.47636413
  atomic energy  EATOM  =       528.95000483
  Solvation  Ediel_sol  =         0.00000000
  ---------------------------------------------------
  free energy    TOTEN  =       -17.44286996 eV

  energy without entropy =      -17.44286996  energy(sigma->0) =      -17.44286996


--------------------------------------------------------------------------------------------------------




--------------------------------------- Iteration      1(   5)  ---------------------------------------


     EDDAV:  cpu time      0.0090: real time      0.0091
       DOS:  cpu time      0.0002: real time      0.0002
    CHARGE:  cpu time      0.0043: real time      0.0097
    MIXING:  cpu time      0.0011: real time      0.0068
    --------------------------------------------
      LOOP:  cpu time      0.0146: real time      0.0258

 eigenvalue-minimisations  :    56
 total energy-change (2. order) :-0.3527725E-07  (-0.3527666E-07)
 number of electron      10.0000004 magnetization 
 augmentation part        0.3871461 magnetization 

 Broyden mixing:
  rms(total) = 0.58320E+00    rms(broyden)= 0.58156E+00
  rms(prec ) = 0.96177E+00
  weight for this iteration     100.00

 Free energy of the ion-electron system (eV)
  ---------------------------------------------------
  alpha Z        PSCENC =         4.37930459
  Ewald energy   TEWEN  =      -111.28462631
  -Hartree energ DENC   =      -322.61242007
  -exchange      EXHF   =         0.00000000
  -V(xc)+E(xc)   XCENC  =        38.36077322
  PAW double counting   =       224.09405147     -226.85359355
  entropy T*S    EENTRO =         0.00000000
  eigenvalues    EBANDS =      -152.47636417
  atomic energy  EATOM  =       528.95000483
  Solvation  Ediel_sol  =         0.00000000
  ---------------------------------------------------
  free energy    TOTEN  =       -17.44286999 eV

  energy without entropy =      -17.44286999  energy(sigma->0) =      -17.44286999


--------------------------------------------------------------------------------------------------------




--------------------------------------- Iteration      1(   6)  ---------------------------------------


    POTLOK:  cpu time      0.0071: real time      0.0073
    SETDIJ:  cpu time      0.0010: real time      0.0010
     EDDAV:  cpu time      0.0092: real time      0.0092
       DOS:  cpu time      0.0002: real time      0.0002
    CHARGE:  cpu time      0.0032: real time      0.0032
    MIXING:  cpu time      0.0011: real time      0.0016
    --------------------------------------------
      LOOP:  cpu time      0.0217: real time      0.0224

 eigenvalue-minimisations  :    56
 total energy-change (2. order) : 0.6156541E+00  (-0.9422999E-01)
 number of electron      10.0000004 magnetization 
 augmentation part        0.3686598 magnetization 

 Broyden mixing:
  rms(total) = 0.29121E+00    rms(broyden)= 0.29110E+00
  rms(prec ) = 0.45483E+00
  weight for this iteration     100.00

 eigenvalues of (default mixing * dielectric matrix)
  average eigenvalue GAMMA=   1.8618
  1.8618

 Free energy of the ion-electron system (eV)
  ---------------------------------------------------
  alpha Z        PSCENC =         4.37930459
  Ewald energy   TEWEN  =      -111.28462631
  -Hartree energ DENC   =      -333.23111736
  -exchange      EXHF   =         0.00000000
  -V(xc)+E(xc)   XCENC  =        39.01783590
  PAW double counting   =       264.72262153     -267.63988043
  entropy T*S    EENTRO =        -0.00000000
  eigenvalues    EBANDS =      -141.74135866
  atomic energy  EATOM  =       528.95000483
  Solvation  Ediel_sol  =         0.00000000
  ---------------------------------------------------
  free energy    TOTEN  =       -16.82721591 eV

  energy without entropy =      -16.82721591  energy(sigma->0) =      -16.82721591


--------------------------------------------------------------------------------------------------------




--------------------------------------- Iteration      1(   7)  ---------------------------------------


    POTLOK:  cpu time      0.0053: real time      0.0054
    SETDIJ:  cpu time      0.0008: real time      0.0008
     EDDAV:  cpu time      0.0083: real time      0.0083
       DOS:  cpu time      0.0002: real time      0.0002
    CHARGE:  cpu time      0.0035: real time      0.0035
    MIXING:  cpu time      0.0004: real time      0.0004
    --------------------------------------------
      LOOP:  cpu time      0.0185: real time      0.0186

 eigenvalue-minimisations  :    56
 total energy-change (2. order) : 0.1473476E+00  (-0.4962570E-01)
 number of electron      10.0000003 magnetization 
 augmentation part        0.3545029 magnetization 

 Broyden mixing:
  rms(total) = 0.75289E-01    rms(broyden)= 0.75246E-01
  rms(prec ) = 0.11578E+00
  weight for this iteration     100.00

 eigenvalues of (default mixing * dielectric matrix)
  average eigenvalue GAMMA=   2.0477
  1.7141  2.3813

 Free energy of the ion-electron system (eV)
  ---------------------------------------------------
  alpha Z        PSCENC =         4.37930459
  Ewald energy   TEWEN  =      -111.28462631
  -Hartree energ DENC   =      -340.84231353
  -exchange      EXHF   =         0.00000000
  -V(xc)+E(xc)   XCENC  =        39.50264458
  PAW double counting   =       303.74208950     -306.79385048
  entropy T*S    EENTRO =         0.00000000
  eigenvalues    EBANDS =      -134.33312150
  atomic energy  EATOM  =       528.95000483
  Solvation  Ediel_sol  =         0.00000000
  ---------------------------------------------------
  free energy    TOTEN  =       -16.67986831 eV

  energy without entropy =      -16.67986831  energy(sigma->0) =      -16.67986831


--------------------------------------------------------------------------------------------------------




--------------------------------------- Iteration      1(   8)  ---------------------------------------


    POTLOK:  cpu time      0.0053: real time      0.0054
    SETDIJ:  cpu time      0.0008: real time      0.0008
     EDDAV:  cpu time      0.0089: real time      0.0090
       DOS:  cpu time      0.0002: real time      0.0002
    CHARGE:  cpu time      0.0032: real time      0.0032
    MIXING:  cpu time      0.0004: real time      0.0004
    --------------------------------------------
      LOOP:  cpu time      0.0188: real time      0.0190

 eigenvalue-minimisations  :    56
 total energy-change (2. order) : 0.6076103E-02  (-0.1938461E-02)
 number of electron      10.0000003 magnetization 
 augmentation part        0.3556293 magnetization 

 Broyden mixing:
  rms(total) = 0.93775E-02    rms(broyden)= 0.93727E-02
  rms(prec ) = 0.22830E-01
  weight for this iteration     100.00

 eigenvalues of (default mixing * dielectric matrix)
  average eigenvalue GAMMA=   1.7566
  2.4272  1.4214  1.4214

 Free energy of the ion-electron system (eV)
  ---------------------------------------------------
  alpha Z        PSCENC =         4.37930459
  Ewald energy   TEWEN  =      -111.28462631
  -Hartree energ DENC   =      -339.86857815
  -exchange      EXHF   =         0.00000000
  -V(xc)+E(xc)   XCENC  =        39.45387465
  PAW double counting   =       311.91136590     -314.97456567
  entropy T*S    EENTRO =        -0.00000000
  eigenvalues    EBANDS =      -135.24057205
  atomic energy  EATOM  =       528.95000483
  Solvation  Ediel_sol  =         0.00000000
  ---------------------------------------------------
  free energy    TOTEN  =       -16.67379221 eV

  energy without entropy =      -16.67379221  energy(sigma->0) =      -16.67379221


--------------------------------------------------------------------------------------------------------




--------------------------------------- Iteration      1(   9)  ---------------------------------------


    POTLOK:  cpu time      0.0055: real time      0.0057
    SETDIJ:  cpu time      0.0008: real time      0.0008
     EDDAV:  cpu time      0.0083: real time      0.0083
       DOS:  cpu time      0.0002: real time      0.0002
    CHARGE:  cpu time      0.0032: real time      0.0032
    MIXING:  cpu time      0.0004: real time      0.0004
    --------------------------------------------
      LOOP:  cpu time      0.0184: real time      0.0185

 eigenvalue-minimisations  :    56
 total energy-change (2. order) : 0.2579389E-03  (-0.1966409E-03)
 number of electron      10.0000003 magnetization 
 augmentation part        0.3547847 magnetization 

 Broyden mixing:
  rms(total) = 0.44490E-02    rms(broyden)= 0.44463E-02
  rms(prec ) = 0.11539E-01
  weight for this iteration     100.00

 eigenvalues of (default mixing * dielectric matrix)
  average eigenvalue GAMMA=   1.8920
  0.9997  2.4999  2.4999  1.5684

 Free energy of the ion-electron system (eV)
  ---------------------------------------------------
  alpha Z        PSCENC =         4.37930459
  Ewald energy   TEWEN  =      -111.28462631
  -Hartree energ DENC   =      -340.39036377
  -exchange      EXHF   =         0.00000000
  -V(xc)+E(xc)   XCENC  =        39.48713556
  PAW double counting   =       313.07288439     -316.14019518
  entropy T*S    EENTRO =        -0.00000000
  eigenvalues    EBANDS =      -134.74767837
  atomic energy  EATOM  =       528.95000483
  Solvation  Ediel_sol  =         0.00000000
  ---------------------------------------------------
  free energy    TOTEN  =       -16.67353427 eV

  energy without entropy =      -16.67353427  energy(sigma->0) =      -16.67353427


--------------------------------------------------------------------------------------------------------




--------------------------------------- Iteration      1(  10)  ---------------------------------------


    POTLOK:  cpu time      0.0052: real time      0.0054
    SETDIJ:  cpu time      0.0008: real time      0.0008
     EDDAV:  cpu time      0.0083: real time      0.0083
       DOS:  cpu time      0.0002: real time      0.0002
    CHARGE:  cpu time      0.0032: real time      0.0032
    MIXING:  cpu time      0.0004: real time      0.0004
    --------------------------------------------
      LOOP:  cpu time      0.0180: real time      0.0183

 eigenvalue-minimisations  :    56
 total energy-change (2. order) :-0.1373919E-04  (-0.8164502E-05)
 number of electron      10.0000003 magnetization 
 augmentation part        0.3547790 magnetization 

 Broyden mixing:
  rms(total) = 0.97740E-03    rms(broyden)= 0.97629E-03
  rms(prec ) = 0.22160E-02
  weight for this iteration     100.00

 eigenvalues of (default mixing * dielectric matrix)
  average eigenvalue GAMMA=   1.8991
  3.3042  2.4116  0.9653  1.4188  1.3954

 Free energy of the ion-electron system (eV)
  ---------------------------------------------------
  alpha Z        PSCENC =         4.37930459
  Ewald energy   TEWEN  =      -111.28462631
  -Hartree energ DENC   =      -340.41467463
  -exchange      EXHF   =         0.00000000
  -V(xc)+E(xc)   XCENC  =        39.48992091
  PAW double counting   =       312.82089717     -315.88484999
  entropy T*S    EENTRO =        -0.00000000
  eigenvalues    EBANDS =      -134.72952458
  atomic energy  EATOM  =       528.95000483
  Solvation  Ediel_sol  =         0.00000000
  ---------------------------------------------------
  free energy    TOTEN  =       -16.67354801 eV

  energy without entropy =      -16.67354801  energy(sigma->0) =      -16.67354801


--------------------------------------------------------------------------------------------------------




--------------------------------------- Iteration      1(  11)  ---------------------------------------


    POTLOK:  cpu time      0.0053: real time      0.0053
    SETDIJ:  cpu time      0.0008: real time      0.0008
     EDDAV:  cpu time      0.0086: real time      0.0086
       DOS:  cpu time      0.0002: real time      0.0002
    CHARGE:  cpu time      0.0032: real time      0.0032
    MIXING:  cpu time      0.0004: real time      0.0004
    --------------------------------------------
      LOOP:  cpu time      0.0184: real time      0.0184

 eigenvalue-minimisations  :    56
 total energy-change (2. order) : 0.4102235E-05  (-0.1930377E-05)
 number of electron      10.0000003 magnetization 
 augmentation part        0.3548495 magnetization 

 Broyden mixing:
  rms(total) = 0.52260E-03    rms(broyden)= 0.52255E-03
  rms(prec ) = 0.92459E-03
  weight for this iteration     100.00

 eigenvalues of (default mixing * dielectric matrix)
  average eigenvalue GAMMA=   2.0699
  3.7247  2.7410  2.4125  1.5364  1.0025  1.0025

 Free energy of the ion-electron system (eV)
  ---------------------------------------------------
  alpha Z        PSCENC =         4.37930459
  Ewald energy   TEWEN  =      -111.28462631
  -Hartree energ DENC   =      -340.37421131
  -exchange      EXHF   =         0.00000000
  -V(xc)+E(xc)   XCENC  =        39.48744377
  PAW double counting   =       312.70054275     -315.76412928
  entropy T*S    EENTRO =        -0.00000000
  eigenvalues    EBANDS =      -134.76787295
  atomic energy  EATOM  =       528.95000483
  Solvation  Ediel_sol  =         0.00000000
  ---------------------------------------------------
  free energy    TOTEN  =       -16.67354391 eV

  energy without entropy =      -16.67354391  energy(sigma->0) =      -16.67354391


--------------------------------------------------------------------------------------------------------




--------------------------------------- Iteration      1(  12)  ---------------------------------------


    POTLOK:  cpu time      0.0051: real time      0.0053
    SETDIJ:  cpu time      0.0008: real time      0.0008
     EDDAV:  cpu time      0.0087: real time      0.0099
       DOS:  cpu time      0.0002: real time      0.0002
    CHARGE:  cpu time      0.0034: real time      0.0035
    MIXING:  cpu time      0.0004: real time      0.0004
    --------------------------------------------
      LOOP:  cpu time      0.0187: real time      0.0200

 eigenvalue-minimisations  :    56
 total energy-change (2. order) : 0.1280204E-05  (-0.2662628E-06)
 number of electron      10.0000003 magnetization 
 augmentation part        0.3548313 magnetization 

 Broyden mixing:
  rms(total) = 0.13266E-03    rms(broyden)= 0.13264E-03
  rms(prec ) = 0.25022E-03
  weight for this iteration     100.00

 eigenvalues of (default mixing * dielectric matrix)
  average eigenvalue GAMMA=   1.9084
  3.6851  2.7435  2.4070  1.5321  1.1261  0.9775  0.8875

 Free energy of the ion-electron system (eV)
  ---------------------------------------------------
  alpha Z        PSCENC =         4.37930459
  Ewald energy   TEWEN  =      -111.28462631
  -Hartree energ DENC   =      -340.37940167
  -exchange      EXHF   =         0.00000000
  -V(xc)+E(xc)   XCENC  =        39.48760932
  PAW double counting   =       312.66147705     -315.72545953
  entropy T*S    EENTRO =        -0.00000000
  eigenvalues    EBANDS =      -134.76245092
  atomic energy  EATOM  =       528.95000483
  Solvation  Ediel_sol  =         0.00000000
  ---------------------------------------------------
  free energy    TOTEN  =       -16.67354263 eV

  energy without entropy =      -16.67354263  energy(sigma->0) =      -16.67354263


--------------------------------------------------------------------------------------------------------




--------------------------------------- Iteration      1(  13)  ---------------------------------------


    POTLOK:  cpu time      0.0055: real time      0.0057
    SETDIJ:  cpu time      0.0008: real time      0.0008
     EDDAV:  cpu time      0.0244: real time      0.0244
       DOS:  cpu time      0.0002: real time      0.0002
    --------------------------------------------
      LOOP:  cpu time      0.0309: real time      0.0310

 eigenvalue-minimisations  :   112
 total energy-change (2. order) : 0.1418164E-07  (-0.9190938E-08)
 number of electron      10.0000003 magnetization 
 augmentation part        0.3548313 magnetization 

 Free energy of the ion-electron system (eV)
  ---------------------------------------------------
  alpha Z        PSCENC =         4.37930459
  Ewald energy   TEWEN  =      -111.28462631
  -Hartree energ DENC   =      -340.37630091
  -exchange      EXHF   =         0.00000000
  -V(xc)+E(xc)   XCENC  =        39.48744420
  PAW double counting   =       312.66432297     -315.72826913
  entropy T*S    EENTRO =        -0.00000000
  eigenvalues    EBANDS =      -134.76542286
  atomic energy  EATOM  =       528.95000483
  Solvation  Ediel_sol  =         0.00000000
  ---------------------------------------------------
  free energy    TOTEN  =       -16.67354261 eV

  energy without entropy =      -16.67354261  energy(sigma->0) =      -16.67354261


--------------------------------------------------------------------------------------------------------




 average (electrostatic) potential at core
  the test charge radii are     0.7089
  (the norm of the test charge is              1.0000)
       1 -74.7136       2 -74.7136
 
 
 
 E-fermi :  -8.7546     XC(G=0):  -4.1154     alpha+bet : -1.7682

 val. band max:       -8.8348959534   @ k =   0.0000   0.0000   0.0000
 cond. band min:      -0.4500551546   @ k =   0.0000   0.0000   0.0000
 fundamental gap:      8.3848407988
 Fermi energy:        -8.7546452984

 k-point     1 :       0.0000    0.0000    0.0000
  band No.  band energies     occupation 
      1     -26.6157      2.00000
      2     -12.0412      2.00000
      3      -9.9455      2.00000
      4      -9.9455      2.00000
      5      -8.8349      2.00000
      6      -0.4501      0.00000
      7      -0.4501      0.00000
      8       0.6578      0.00000
      9       4.8720      0.00000
     10       5.5413      0.00000
     11       6.4629      0.00000
     12       7.3495      0.00000
     13       7.3495      0.00000
     14      10.1959      0.00000
     15      11.2956      0.00000
     16      11.7865      0.00000
     17      12.1369      0.00000
     18      12.2609      0.00000
     19      12.2609      0.00000
     20      13.0551      0.00000
     21      13.7093      0.00000
     22      13.7093      0.00000
     23      14.3960      0.00000
     24      15.7578      0.00000
     25      15.7578      0.00000
     26      17.0155      0.00000
     27      17.9533      0.00000
     28      18.6499      0.00000


--------------------------------------------------------------------------------------------------------


 soft charge-density along one line, spin component           1
         0         1         2         3         4         5         6         7         8         9
 total charge-density along one line
 
 pseudopotential strength for first ion, spin component:           1
 14.044   0.076   0.000   0.016   0.000   0.000   0.025   0.000
  0.076   0.005   0.000   0.001   0.000   0.000   0.000   0.000
  0.000   0.000  -7.398  -0.000   0.000  -0.154  -0.000   0.000
  0.016   0.001  -0.000  -7.464   0.000  -0.000  -0.175   0.000
  0.000   0.000   0.000   0.000  -7.398   0.000   0.000  -0.154
  0.000   0.000  -0.154  -0.000   0.000   0.869  -0.000   0.000
  0.025   0.000  -0.000  -0.175   0.000  -0.000   0.870   0.000
  0.000   0.000   0.000   0.000  -0.154   0.000   0.000   0.869
 total augmentation occupancy for first ion, spin component:           1
  1.902  -0.608   0.000   0.108   0.000  -0.000   0.099   0.000
 -0.608   0.829   0.000   0.747  -0.000   0.000  -0.307  -0.000
  0.000   0.000   1.058  -0.000  -0.000  -0.153   0.000   0.000
  0.108   0.747  -0.000   1.661   0.000  -0.000  -0.280  -0.000
  0.000  -0.000  -0.000   0.000   1.058   0.000   0.000  -0.153
 -0.000   0.000  -0.153  -0.000   0.000   0.022  -0.000   0.000
  0.099  -0.307   0.000  -0.280   0.000  -0.000   0.129   0.000
  0.000  -0.000   0.000  -0.000  -0.153   0.000   0.000   0.022


------------------------ aborting loop because EDIFF is reached ----------------------------------------


    CHARGE:  cpu time      0.0038: real time      0.0040
    FORLOC:  cpu time      0.0002: real time      0.0012
    FORNL :  cpu time      0.0009: real time      0.0031
    STRESS:  cpu time      0.0127: real time      0.0153
    FORHAR:  cpu time      0.0021: real time      0.0039
    MIXING:  cpu time      0.0007: real time      0.0007
    OFIELD:  cpu time      0.0001: real time      0.0007

  FORCE on cell =-STRESS in cart. coord.  units (eV):
  Direction    XX          YY          ZZ          XY          YZ          ZX
  --------------------------------------------------------------------------------------
  Alpha Z     4.37930     4.37930     4.37930
  Ewald    -136.36679  -136.36679   161.44904     0.00000     0.00000     0.00000
  Hartree    81.56613    81.56613   177.23876    -0.00000    -0.00000    -0.00000
  E(xc)     -42.05410   -42.05410   -40.78765     0.00000    -0.00000    -0.00000
  Local     -88.14716   -88.14716  -451.99315     0.00000    -0.00000    -0.00000
  n-local   -16.04058   -16.04058   -27.69616    -0.00000     0.00000    -0.00000
  augment     1.35234     1.35234     1.59328    -0.00000    -0.00000     0.00000
  Kinetic   194.40600   194.40600   173.43969    -0.00000     0.00000    -0.00000
  Fock        0.00000     0.00000     0.00000     0.00000     0.00000     0.00000
  -------------------------------------------------------------------------------------
  Total      -0.90486    -0.90486    -2.37690     0.00000     0.00000     0.00000
  in kB     -14.74747   -14.74747   -38.73885     0.00000     0.00000     0.00000
  external pressure =      -22.74 kB  Pullay stress =        0.00 kB


 VOLUME and BASIS-vectors are now :
 -----------------------------------------------------------------------------
  energy-cutoff  :      400.00
  volume of cell :       98.30
      direct lattice vectors                 reciprocal lattice vectors
     4.448471774  0.000000000  0.000000000     0.224796301  0.000000000  0.000000000
     0.000000000  4.448471774  0.000000000     0.000000000  0.224796301  0.000000000
     0.000000000  0.000000000  4.967674875     0.000000000  0.000000000  0.201301419

  length of vectors
     4.448471774  4.448471774  4.967674875     0.224796301  0.224796301  0.201301419


 FORCES acting on ions
    electron-ion (+dipol)            ewald-force                    non-local-force                 convergence-correction
 -----------------------------------------------------------------------------------------------
   0.981E-13 0.138E-11 -.230E+03   0.680E-16 0.226E-15 0.274E+03   -.495E-25 0.610E-25 -.439E+02   -.923E-17 0.200E-13 -.180E-02
   0.102E-12 0.112E-11 0.230E+03   -.168E-15 0.870E-16 -.274E+03   0.302E-25 0.160E-25 0.439E+02   0.558E-15 0.297E-14 0.180E-02
 -----------------------------------------------------------------------------------------------
   0.200E-12 0.250E-11 0.597E-12   -.100E-15 0.313E-15 0.000E+00   -.194E-25 0.770E-25 0.000E+00   0.549E-15 0.230E-13 0.487E-13
 
 
 POSITION                                       TOTAL-FORCE (eV/Angst)
 -----------------------------------------------------------------------------------
      2.22424      2.22424      0.55852         0.000000     -0.000000     -0.041739
      2.22424      2.22424      4.40915        -0.000000      0.000000      0.041739
 -----------------------------------------------------------------------------------
    total drift:                                0.000000      0.000000      0.000000


--------------------------------------------------------------------------------------------------------



  FREE ENERGIE OF THE ION-ELECTRON SYSTEM (eV)
  ---------------------------------------------------
  free  energy   TOTEN  =       -16.67354261 eV

  energy  without entropy=      -16.67354261  energy(sigma->0) =      -16.67354261
 


--------------------------------------------------------------------------------------------------------


    POTLOK:  cpu time      0.0123: real time      0.0124


--------------------------------------------------------------------------------------------------------




--------------------------------------------------------------------------------------------------------


    WAVPRE:  cpu time      0.0070: real time      0.0160
    FEWALD:  cpu time      0.0002: real time      0.0002
    ORTHCH:  cpu time      0.0006: real time      0.0006
     LOOP+:  cpu time      0.3285: real time      0.7137


--------------------------------------- Ionic step        2  -------------------------------------------




--------------------------------------- Iteration      2(   1)  ---------------------------------------


    POTLOK:  cpu time      0.0101: real time      0.0104
    SETDIJ:  cpu time      0.0014: real time      0.0014
     EDDAV:  cpu time      0.0111: real time      0.0112
       DOS:  cpu time      0.0002: real time      0.0002
    CHARGE:  cpu time      0.0037: real time      0.0037
    MIXING:  cpu time      0.0003: real time      0.0003
    --------------------------------------------
      LOOP:  cpu time      0.0268: real time      0.0272

 eigenvalue-minimisations  :    56
 total energy-change (2. order) : 0.8982954E-03  (-0.4442652E-02)
 number of electron      10.0000005 magnetization 
 augmentation part        0.3581197 magnetization 

 Broyden mixing:
  rms(total) = 0.78827E-02    rms(broyden)= 0.78635E-02
  rms(prec ) = 0.13693E-01
  weight for this iteration     100.00

 Free energy of the ion-electron system (eV)
  ---------------------------------------------------
  alpha Z        PSCENC =         4.37930459
  Ewald energy   TEWEN  =      -110.17609775
  -Hartree energ DENC   =      -341.01766147
  -exchange      EXHF   =         0.00000000
  -V(xc)+E(xc)   XCENC  =        39.50847178
  PAW double counting   =       312.67152543     -315.73544121
  entropy T*S    EENTRO =        -0.00000000
  eigenvalues    EBANDS =      -135.25275054
  atomic energy  EATOM  =       528.95000483
  Solvation  Ediel_sol  =         0.00000000
  ---------------------------------------------------
  free energy    TOTEN  =       -16.67264433 eV

  energy without entropy =      -16.67264433  energy(sigma->0) =      -16.67264433


--------------------------------------------------------------------------------------------------------




--------------------------------------- Iteration      2(   2)  ---------------------------------------


    POTLOK:  cpu time      0.0052: real time      0.0054
    SETDIJ:  cpu time      0.0008: real time      0.0008
     EDDAV:  cpu time      0.0135: real time      0.0135
       DOS:  cpu time      0.0002: real time      0.0002
    CHARGE:  cpu time      0.0032: real time      0.0032
    MIXING:  cpu time      0.0003: real time      0.0003
    --------------------------------------------
      LOOP:  cpu time      0.0233: real time      0.0235

 eigenvalue-minimisations  :    84
 total energy-change (2. order) : 0.1381606E-03  (-0.3602688E-04)
 number of electron      10.0000005 magnetization 
 augmentation part        0.3578284 magnetization 

 Broyden mixing:
  rms(total) = 0.34995E-02    rms(broyden)= 0.34978E-02
  rms(prec ) = 0.55943E-02
  weight for this iteration     100.00

 eigenvalues of (default mixing * dielectric matrix)
  average eigenvalue GAMMA=   1.7053
  1.7053

 Free energy of the ion-electron system (eV)
  ---------------------------------------------------
  alpha Z        PSCENC =         4.37930459
  Ewald energy   TEWEN  =      -110.17609775
  -Hartree energ DENC   =      -341.19557260
  -exchange      EXHF   =         0.00000000
  -V(xc)+E(xc)   XCENC  =        39.51905714
  PAW double counting   =       313.33971517     -316.40799417
  entropy T*S    EENTRO =        -0.00000000
  eigenvalues    EBANDS =      -135.08092338
  atomic energy  EATOM  =       528.95000483
  Solvation  Ediel_sol  =         0.00000000
  ---------------------------------------------------
  free energy    TOTEN  =       -16.67250617 eV

  energy without entropy =      -16.67250617  energy(sigma->0) =      -16.67250617


--------------------------------------------------------------------------------------------------------




--------------------------------------- Iteration      2(   3)  ---------------------------------------


    POTLOK:  cpu time      0.0052: real time      0.0054
    SETDIJ:  cpu time      0.0008: real time      0.0008
     EDDAV:  cpu time      0.0084: real time      0.0084
       DOS:  cpu time      0.0002: real time      0.0002
    CHARGE:  cpu time      0.0032: real time      0.0032
    MIXING:  cpu time      0.0003: real time      0.0003
    --------------------------------------------
      LOOP:  cpu time      0.0181: real time      0.0184

 eigenvalue-minimisations  :    56
 total energy-change (2. order) : 0.2437483E-04  (-0.1165909E-04)
 number of electron      10.0000005 magnetization 
 augmentation part        0.3576253 magnetization 

 Broyden mixing:
  rms(total) = 0.81278E-03    rms(broyden)= 0.81138E-03
  rms(prec ) = 0.11679E-02
  weight for this iteration     100.00

 eigenvalues of (default mixing * dielectric matrix)
  average eigenvalue GAMMA=   1.7939
  1.7939  1.7939

 Free energy of the ion-electron system (eV)
  ---------------------------------------------------
  alpha Z        PSCENC =         4.37930459
  Ewald energy   TEWEN  =      -110.17609775
  -Hartree energ DENC   =      -341.29579449
  -exchange      EXHF   =         0.00000000
  -V(xc)+E(xc)   XCENC  =        39.52493959
  PAW double counting   =       313.86738450     -316.93925423
  entropy T*S    EENTRO =        -0.00000000
  eigenvalues    EBANDS =      -134.98296884
  atomic energy  EATOM  =       528.95000483
  Solvation  Ediel_sol  =         0.00000000
  ---------------------------------------------------
  free energy    TOTEN  =       -16.67248180 eV

  energy without entropy =      -16.67248180  energy(sigma->0) =      -16.67248180


--------------------------------------------------------------------------------------------------------




--------------------------------------- Iteration      2(   4)  ---------------------------------------


    POTLOK:  cpu time      0.0054: real time      0.0056
    SETDIJ:  cpu time      0.0008: real time      0.0008
     EDDAV:  cpu time      0.0083: real time      0.0084
       DOS:  cpu time      0.0002: real time      0.0002
    --------------------------------------------
      LOOP:  cpu time      0.0147: real time      0.0150

 eigenvalue-minimisations  :    56
 total energy-change (2. order) : 0.4177455E-06  (-0.2289837E-06)
 number of electron      10.0000005 magnetization 
 augmentation part        0.3576253 magnetization 

 Free energy of the ion-electron system (eV)
  ---------------------------------------------------
  alpha Z        PSCENC =         4.37930459
  Ewald energy   TEWEN  =      -110.17609775
  -Hartree energ DENC   =      -341.27798761
  -exchange      EXHF   =         0.00000000
  -V(xc)+E(xc)   XCENC  =        39.52385657
  PAW double counting   =       313.98001843     -317.05279174
  entropy T*S    EENTRO =        -0.00000000
  eigenvalues    EBANDS =      -134.99878870
  atomic energy  EATOM  =       528.95000483
  Solvation  Ediel_sol  =         0.00000000
  ---------------------------------------------------
  free energy    TOTEN  =       -16.67248138 eV

  energy without entropy =      -16.67248138  energy(sigma->0) =      -16.67248138


--------------------------------------------------------------------------------------------------------




 average (electrostatic) potential at core
  the test charge radii are     0.7089
  (the norm of the test charge is              1.0000)
       1 -74.7150       2 -74.7150
 
 
 
 E-fermi :  -8.7538     XC(G=0):  -4.1126     alpha+bet : -1.7682

 val. band max:       -8.8388748946   @ k =   0.0000   0.0000   0.0000
 cond. band min:      -0.4046765730   @ k =   0.0000   0.0000   0.0000
 fundamental gap:      8.4341983216
 Fermi energy:        -8.7538012306

 k-point     1 :       0.0000    0.0000    0.0000
  band No.  band energies     occupation 
      1     -26.6823      2.00000
      2     -12.0153      2.00000
      3      -9.9814      2.00000
      4      -9.9814      2.00000
      5      -8.8389      2.00000
      6      -0.4047      0.00000
      7      -0.4047      0.00000
      8       0.6588      0.00000
      9       4.8684      0.00000
     10       5.5407      0.00000
     11       6.4622      0.00000
     12       7.3438      0.00000
     13       7.3438      0.00000
     14      10.1953      0.00000
     15      11.2940      0.00000
     16      11.7885      0.00000
     17      12.1364      0.00000
     18      12.2658      0.00000
     19      12.2658      0.00000
     20      13.0537      0.00000
     21      13.7126      0.00000
     22      13.7126      0.00000
     23      14.4895      0.00000
     24      15.7494      0.00000
     25      15.7494      0.00000
     26      17.0399      0.00000
     27      17.9586      0.00000
     28      18.6490      0.00000


--------------------------------------------------------------------------------------------------------


 soft charge-density along one line, spin component           1
         0         1         2         3         4         5         6         7         8         9
 total charge-density along one line
 
 pseudopotential strength for first ion, spin component:           1
 14.044   0.076   0.000   0.016   0.000   0.000   0.025   0.000
  0.076   0.005   0.000   0.001   0.000   0.000   0.000   0.000
  0.000   0.000  -7.397  -0.000  -0.000  -0.154  -0.000  -0.000
  0.016   0.001  -0.000  -7.465  -0.000  -0.000  -0.175  -0.000
  0.000   0.000  -0.000  -0.000  -7.397  -0.000  -0.000  -0.154
  0.000   0.000  -0.154  -0.000  -0.000   0.870  -0.000  -0.000
  0.025   0.000  -0.000  -0.175  -0.000  -0.000   0.870  -0.000
  0.000   0.000  -0.000  -0.000  -0.154  -0.000  -0.000   0.870
 total augmentation occupancy for first ion, spin component:           1
  1.902  -0.616   0.000   0.105   0.000  -0.000   0.098   0.000
 -0.616   0.837   0.000   0.750   0.000  -0.000  -0.308   0.000
  0.000   0.000   1.060   0.000   0.000  -0.154   0.000   0.000
  0.105   0.750   0.000   1.668   0.000   0.000  -0.277   0.000
  0.000   0.000   0.000   0.000   1.060   0.000   0.000  -0.154
 -0.000  -0.000  -0.154   0.000   0.000   0.022   0.000   0.000
  0.098  -0.308   0.000  -0.277   0.000   0.000   0.129   0.000
  0.000   0.000   0.000   0.000  -0.154   0.000   0.000   0.022


------------------------ aborting loop because EDIFF is reached ----------------------------------------


    CHARGE:  cpu time      0.0035: real time      0.0036
    FORLOC:  cpu time      0.0001: real time      0.0001
    FORNL :  cpu time      0.0004: real time      0.0004
    STRESS:  cpu time      0.0026: real time      0.0026
    FORHAR:  cpu time      0.0008: real time      0.0008
    MIXING:  cpu time      0.0003: real time      0.0003
    OFIELD:  cpu time      0.0000: real time      0.0000

  FORCE on cell =-STRESS in cart. coord.  units (eV):
  Direction    XX          YY          ZZ          XY          YZ          ZX
  --------------------------------------------------------------------------------------
  Alpha Z     4.37930     4.37930     4.37930
  Ewald    -136.32947  -136.32947   162.48292    -0.00000    -0.00000    -0.00000
  Hartree    81.96154    81.96154   177.36071    -0.00000    -0.00000    -0.00000
  E(xc)     -42.09163   -42.09163   -40.82378     0.00000     0.00000     0.00000
  Local     -88.67518   -88.67518  -452.57428     0.00000    -0.00000    -0.00000
  n-local   -16.10441   -16.10441   -27.78687     0.00000    -0.00000    -0.00000
  augment     1.36163     1.36163     1.57935     0.00000     0.00000    -0.00000
  Kinetic   194.58483   194.58483   173.68695    -0.00000    -0.00000     0.00000
  Fock        0.00000     0.00000     0.00000     0.00000     0.00000     0.00000
  -------------------------------------------------------------------------------------
  Total      -0.91339    -0.91339    -1.69569     0.00000    -0.00000     0.00000
  in kB     -14.88641   -14.88641   -27.63643     0.00000    -0.00000     0.00000
  external pressure =      -19.14 kB  Pullay stress =        0.00 kB


 VOLUME and BASIS-vectors are now :
 -----------------------------------------------------------------------------
  energy-cutoff  :      400.00
  volume of cell :       98.30
      direct lattice vectors                 reciprocal lattice vectors
     4.448471774  0.000000000  0.000000000     0.224796301  0.000000000  0.000000000
     0.000000000  4.448471774  0.000000000     0.000000000  0.224796301  0.000000000
     0.000000000  0.000000000  4.967674875     0.000000000  0.000000000  0.201301419

  length of vectors
     4.448471774  4.448471774  4.967674875     0.224796301  0.224796301  0.201301419


 FORCES acting on ions
    electron-ion (+dipol)            ewald-force                    non-local-force                 convergence-correction
 -----------------------------------------------------------------------------------------------
   0.100E-12 0.140E-11 -.232E+03   -.161E-16 0.517E-16 0.276E+03   -.861E-27 0.203E-26 -.440E+02   -.398E-14 0.153E-13 0.844E-03
   0.956E-13 0.113E-11 0.232E+03   -.849E-16 0.260E-15 -.276E+03   0.190E-26 0.227E-26 0.440E+02   -.337E-14 0.935E-14 -.844E-03
 -----------------------------------------------------------------------------------------------
   0.196E-12 0.252E-11 0.483E-12   -.101E-15 0.312E-15 0.000E+00   0.104E-26 0.430E-26 0.000E+00   -.734E-14 0.247E-13 0.484E-13
 
 
 POSITION                                       TOTAL-FORCE (eV/Angst)
 -----------------------------------------------------------------------------------
      2.22424      2.22424      0.55651         0.000000     -0.000000      0.572395
      2.22424      2.22424      4.41116        -0.000000      0.000000     -0.572395
 -----------------------------------------------------------------------------------
    total drift:                                0.000000      0.000000      0.000000


--------------------------------------------------------------------------------------------------------



  FREE ENERGIE OF THE ION-ELECTRON SYSTEM (eV)
  ---------------------------------------------------
  free  energy   TOTEN  =       -16.67248138 eV

  energy  without entropy=      -16.67248138  energy(sigma->0) =      -16.67248138
 
 d Force =-0.1068519E-02[-0.231E-02, 0.168E-03]  d Energy =-0.1061234E-02-0.728E-05
 d Force =-0.1108536E+01[-0.111E+01,-0.110E+01]  d Ewald  =-0.1108529E+01-0.753E-05


--------------------------------------------------------------------------------------------------------


    POTLOK:  cpu time      0.0068: real time      0.0068


--------------------------------------------------------------------------------------------------------


 Steepest descent step on ions:
 trial-energy change:    0.001061  1 .order    0.001069   -0.000168    0.002305
  (g-gl).g = 0.168E-03      g.g   = 0.168E-03  gl.gl    = 0.000E+00
 g(Force)  = 0.168E-03   g(Stress)= 0.000E+00 ortho     = 0.000E+00
 gamma     =   0.00000
 trial     =   1.00000
 opt step  =   0.06910  (harmonic =   0.06796) maximal distance =0.00013914
 next E    =   -16.673548   (d E  =  -0.00001)


--------------------------------------------------------------------------------------------------------


    WAVPRE:  cpu time      0.0022: real time      0.0038
    FEWALD:  cpu time      0.0001: real time      0.0001
    ORTHCH:  cpu time      0.0003: real time      0.0003
     LOOP+:  cpu time      0.1035: real time      0.1065


--------------------------------------- Ionic step        3  -------------------------------------------




--------------------------------------- Iteration      3(   1)  ---------------------------------------


    POTLOK:  cpu time      0.0049: real time      0.0050
    SETDIJ:  cpu time      0.0008: real time      0.0008
     EDDAV:  cpu time      0.0083: real time      0.0084
       DOS:  cpu time      0.0002: real time      0.0002
    CHARGE:  cpu time      0.0032: real time      0.0033
    MIXING:  cpu time      0.0003: real time      0.0003
    --------------------------------------------
      LOOP:  cpu time      0.0178: real time      0.0179

 eigenvalue-minimisations  :    56
 total energy-change (2. order) :-0.1213199E-02  (-0.3852538E-02)
 number of electron      10.0000004 magnetization 
 augmentation part        0.3545695 magnetization 

 Broyden mixing:
  rms(total) = 0.73818E-02    rms(broyden)= 0.73641E-02
  rms(prec ) = 0.12824E-01
  weight for this iteration     100.00

 Free energy of the ion-electron system (eV)
  ---------------------------------------------------
  alpha Z        PSCENC =         4.37930459
  Ewald energy   TEWEN  =      -111.20830661
  -Hartree energ DENC   =      -340.68133157
  -exchange      EXHF   =         0.00000000
  -V(xc)+E(xc)   XCENC  =        39.50436063
  PAW double counting   =       314.03580032     -317.10896952
  entropy T*S    EENTRO =        -0.00000000
  eigenvalues    EBANDS =      -134.54455767
  atomic energy  EATOM  =       528.95000483
  Solvation  Ediel_sol  =         0.00000000
  ---------------------------------------------------
  free energy    TOTEN  =       -16.67369500 eV

  energy without entropy =      -16.67369500  energy(sigma->0) =      -16.67369500


--------------------------------------------------------------------------------------------------------




--------------------------------------- Iteration      3(   2)  ---------------------------------------


    POTLOK:  cpu time      0.0051: real time      0.0052
    SETDIJ:  cpu time      0.0008: real time      0.0008
     EDDAV:  cpu time      0.0139: real time      0.0139
       DOS:  cpu time      0.0002: real time      0.0002
    CHARGE:  cpu time      0.0032: real time      0.0032
    MIXING:  cpu time      0.0003: real time      0.0003
    --------------------------------------------
      LOOP:  cpu time      0.0235: real time      0.0236

 eigenvalue-minimisations  :    84
 total energy-change (2. order) : 0.1234788E-03  (-0.3105119E-04)
 number of electron      10.0000004 magnetization 
 augmentation part        0.3548448 magnetization 

 Broyden mixing:
  rms(total) = 0.32544E-02    rms(broyden)= 0.32528E-02
  rms(prec ) = 0.51978E-02
  weight for this iteration     100.00

 eigenvalues of (default mixing * dielectric matrix)
  average eigenvalue GAMMA=   1.6974
  1.6974

 Free energy of the ion-electron system (eV)
  ---------------------------------------------------
  alpha Z        PSCENC =         4.37930459
  Ewald energy   TEWEN  =      -111.20830661
  -Hartree energ DENC   =      -340.51481586
  -exchange      EXHF   =         0.00000000
  -V(xc)+E(xc)   XCENC  =        39.49445653
  PAW double counting   =       313.41005401     -316.47913169
  entropy T*S    EENTRO =        -0.00000000
  eigenvalues    EBANDS =      -134.70513731
  atomic energy  EATOM  =       528.95000483
  Solvation  Ediel_sol  =         0.00000000
  ---------------------------------------------------
  free energy    TOTEN  =       -16.67357152 eV

  energy without entropy =      -16.67357152  energy(sigma->0) =      -16.67357152


--------------------------------------------------------------------------------------------------------




--------------------------------------- Iteration      3(   3)  ---------------------------------------


    POTLOK:  cpu time      0.0056: real time      0.0056
    SETDIJ:  cpu time      0.0008: real time      0.0008
     EDDAV:  cpu time      0.0083: real time      0.0083
       DOS:  cpu time      0.0002: real time      0.0002
    CHARGE:  cpu time      0.0032: real time      0.0032
    MIXING:  cpu time      0.0003: real time      0.0003
    --------------------------------------------
      LOOP:  cpu time      0.0184: real time      0.0185

 eigenvalue-minimisations  :    56
 total energy-change (2. order) : 0.2221157E-04  (-0.9970880E-05)
 number of electron      10.0000004 magnetization 
 augmentation part        0.3550333 magnetization 

 Broyden mixing:
  rms(total) = 0.76368E-03    rms(broyden)= 0.76234E-03
  rms(prec ) = 0.10852E-02
  weight for this iteration     100.00

 eigenvalues of (default mixing * dielectric matrix)
  average eigenvalue GAMMA=   1.8140
  1.7202  1.9078

 Free energy of the ion-electron system (eV)
  ---------------------------------------------------
  alpha Z        PSCENC =         4.37930459
  Ewald energy   TEWEN  =      -111.20830661
  -Hartree energ DENC   =      -340.42219860
  -exchange      EXHF   =         0.00000000
  -V(xc)+E(xc)   XCENC  =        39.48902589
  PAW double counting   =       312.92148048     -315.98721779
  entropy T*S    EENTRO =        -0.00000000
  eigenvalues    EBANDS =      -134.79564209
  atomic energy  EATOM  =       528.95000483
  Solvation  Ediel_sol  =         0.00000000
  ---------------------------------------------------
  free energy    TOTEN  =       -16.67354931 eV

  energy without entropy =      -16.67354931  energy(sigma->0) =      -16.67354931


--------------------------------------------------------------------------------------------------------




--------------------------------------- Iteration      3(   4)  ---------------------------------------


    POTLOK:  cpu time      0.0051: real time      0.0053
    SETDIJ:  cpu time      0.0008: real time      0.0008
     EDDAV:  cpu time      0.0086: real time      0.0086
       DOS:  cpu time      0.0002: real time      0.0002
    --------------------------------------------
      LOOP:  cpu time      0.0147: real time      0.0149

 eigenvalue-minimisations  :    56
 total energy-change (2. order) : 0.4659610E-06  (-0.1785801E-06)
 number of electron      10.0000004 magnetization 
 augmentation part        0.3550333 magnetization 

 Free energy of the ion-electron system (eV)
  ---------------------------------------------------
  alpha Z        PSCENC =         4.37930459
  Ewald energy   TEWEN  =      -111.20830661
  -Hartree energ DENC   =      -340.43789368
  -exchange      EXHF   =         0.00000000
  -V(xc)+E(xc)   XCENC  =        39.48998991
  PAW double counting   =       312.80943624     -315.87428120
  entropy T*S    EENTRO =        -0.00000000
  eigenvalues    EBANDS =      -134.78180292
  atomic energy  EATOM  =       528.95000483
  Solvation  Ediel_sol  =         0.00000000
  ---------------------------------------------------
  free energy    TOTEN  =       -16.67354884 eV

  energy without entropy =      -16.67354884  energy(sigma->0) =      -16.67354884


--------------------------------------------------------------------------------------------------------




 average (electrostatic) potential at core
  the test charge radii are     0.7089
  (the norm of the test charge is              1.0000)
       1 -74.7135       2 -74.7135
 
 
 
 E-fermi :  -8.7575     XC(G=0):  -4.1152     alpha+bet : -1.7682

 val. band max:       -8.8350697600   @ k =   0.0000   0.0000   0.0000
 cond. band min:      -0.4469820699   @ k =   0.0000   0.0000   0.0000
 fundamental gap:      8.3880876902
 Fermi energy:        -8.7575263926

 k-point     1 :       0.0000    0.0000    0.0000
  band No.  band energies     occupation 
      1     -26.6203      2.00000
      2     -12.0394      2.00000
      3      -9.9480      2.00000
      4      -9.9480      2.00000
      5      -8.8351      2.00000
      6      -0.4470      0.00000
      7      -0.4470      0.00000
      8       0.6579      0.00000
      9       4.8718      0.00000
     10       5.5411      0.00000
     11       6.4628      0.00000
     12       7.3492      0.00000
     13       7.3492      0.00000
     14      10.1963      0.00000
     15      11.2954      0.00000
     16      11.7864      0.00000
     17      12.1369      0.00000
     18      12.2614      0.00000
     19      12.2614      0.00000
     20      13.0549      0.00000
     21      13.7094      0.00000
     22      13.7094      0.00000
     23      14.4026      0.00000
     24      15.7572      0.00000
     25      15.7572      0.00000
     26      17.0171      0.00000
     27      17.9535      0.00000
     28      18.6497      0.00000


--------------------------------------------------------------------------------------------------------


 soft charge-density along one line, spin component           1
         0         1         2         3         4         5         6         7         8         9
 total charge-density along one line
 
 pseudopotential strength for first ion, spin component:           1
 14.044   0.076   0.000   0.016   0.000   0.000   0.025   0.000
  0.076   0.005   0.000   0.001   0.000   0.000   0.000   0.000
  0.000   0.000  -7.398   0.000  -0.000  -0.154   0.000  -0.000
  0.016   0.001   0.000  -7.464  -0.000   0.000  -0.175  -0.000
  0.000   0.000  -0.000  -0.000  -7.398  -0.000  -0.000  -0.154
  0.000   0.000  -0.154   0.000  -0.000   0.869   0.000  -0.000
  0.025   0.000   0.000  -0.175  -0.000   0.000   0.870  -0.000
  0.000   0.000  -0.000  -0.000  -0.154  -0.000  -0.000   0.869
 total augmentation occupancy for first ion, spin component:           1
  1.902  -0.608   0.000   0.108  -0.000  -0.000   0.099   0.000
 -0.608   0.830   0.000   0.747   0.000   0.000  -0.307  -0.000
  0.000   0.000   1.058   0.000   0.000  -0.153   0.000   0.000
  0.108   0.747   0.000   1.661  -0.000   0.000  -0.280   0.000
 -0.000   0.000   0.000  -0.000   1.058  -0.000   0.000  -0.153
 -0.000   0.000  -0.153   0.000  -0.000   0.022  -0.000  -0.000
  0.099  -0.307   0.000  -0.280   0.000  -0.000   0.129   0.000
  0.000  -0.000   0.000   0.000  -0.153  -0.000   0.000   0.022


------------------------ aborting loop because EDIFF is reached ----------------------------------------


    CHARGE:  cpu time      0.0034: real time      0.0034
    FORLOC:  cpu time      0.0001: real time      0.0001
    FORNL :  cpu time      0.0004: real time      0.0004
    STRESS:  cpu time      0.0026: real time      0.0026
    FORHAR:  cpu time      0.0008: real time      0.0008
    MIXING:  cpu time      0.0003: real time      0.0003
    OFIELD:  cpu time      0.0000: real time      0.0000

  FORCE on cell =-STRESS in cart. coord.  units (eV):
  Direction    XX          YY          ZZ          XY          YZ          ZX
  --------------------------------------------------------------------------------------
  Alpha Z     4.37930     4.37930     4.37930
  Ewald    -136.36421  -136.36421   161.52020    -0.00000     0.00000    -0.00000
  Hartree    81.59350    81.59350   177.24606    -0.00000    -0.00000    -0.00000
  E(xc)     -42.05672   -42.05672   -40.79016    -0.00000    -0.00000     0.00000
  Local     -88.18427   -88.18427  -452.03149     0.00000     0.00000     0.00000
  n-local   -16.04490   -16.04490   -27.70253     0.00000    -0.00000    -0.00000
  augment     1.35293     1.35293     1.59236     0.00000     0.00000     0.00000
  Kinetic   194.41755   194.41755   173.45685     0.00000    -0.00000     0.00000
  Fock        0.00000     0.00000     0.00000     0.00000     0.00000     0.00000
  -------------------------------------------------------------------------------------
  Total      -0.90682    -0.90682    -2.32941     0.00000     0.00000     0.00000
  in kB     -14.77936   -14.77936   -37.96486     0.00000     0.00000     0.00000
  external pressure =      -22.51 kB  Pullay stress =        0.00 kB


 VOLUME and BASIS-vectors are now :
 -----------------------------------------------------------------------------
  energy-cutoff  :      400.00
  volume of cell :       98.30
      direct lattice vectors                 reciprocal lattice vectors
     4.448471774  0.000000000  0.000000000     0.224796301  0.000000000  0.000000000
     0.000000000  4.448471774  0.000000000     0.000000000  0.224796301  0.000000000
     0.000000000  0.000000000  4.967674875     0.000000000  0.000000000  0.201301419

  length of vectors
     4.448471774  4.448471774  4.967674875     0.224796301  0.224796301  0.201301419


 FORCES acting on ions
    electron-ion (+dipol)            ewald-force                    non-local-force                 convergence-correction
 -----------------------------------------------------------------------------------------------
   0.989E-13 0.410E-12 -.230E+03   0.761E-16 0.408E-15 0.274E+03   0.218E-27 -.628E-27 -.439E+02   0.304E-15 0.532E-13 -.518E-03
   0.103E-12 0.585E-12 0.230E+03   -.178E-15 -.968E-16 -.274E+03   0.466E-27 -.503E-27 0.439E+02   -.570E-16 0.664E-13 0.518E-03
 -----------------------------------------------------------------------------------------------
   0.202E-12 0.995E-12 0.455E-12   -.102E-15 0.311E-15 0.000E+00   0.684E-27 -.113E-26 0.000E+00   0.247E-15 0.120E-12 0.459E-13
 
 
 POSITION                                       TOTAL-FORCE (eV/Angst)
 -----------------------------------------------------------------------------------
      2.22424      2.22424      0.55839        -0.000000     -0.000000      0.000421
      2.22424      2.22424      4.40929         0.000000      0.000000     -0.000421
 -----------------------------------------------------------------------------------
    total drift:                                0.000000      0.000000      0.000000


--------------------------------------------------------------------------------------------------------



  FREE ENERGIE OF THE ION-ELECTRON SYSTEM (eV)
  ---------------------------------------------------
  free  energy   TOTEN  =       -16.67354884 eV

  energy  without entropy=      -16.67354884  energy(sigma->0) =      -16.67354884
 
 d Force = 0.1073711E-02[ 0.158E-05, 0.215E-02]  d Energy = 0.1067461E-02 0.625E-05
 d Force = 0.1032215E+01[ 0.103E+01, 0.104E+01]  d Ewald  = 0.1032209E+01 0.608E-05


--------------------------------------------------------------------------------------------------------


    POTLOK:  cpu time      0.0073: real time      0.0073


--------------------------------------------------------------------------------------------------------




--------------------------------------------------------------------------------------------------------


  
 reached required accuracy - stopping structural energy minimisation
     LOOP+:  cpu time      0.0941: real time      0.0956
    4ORBIT:  cpu time      0.0000: real time      0.0000

 total amount of memory used by VASP MPI-rank0    32433. kBytes
=======================================================================

   base      :      30000. kBytes
   nonl-proj :        169. kBytes
   fftplans  :        500. kBytes
   grid      :       1730. kBytes
   one-center:          6. kBytes
   wavefun   :         28. kBytes
 
  
  
 General timing and accounting informations for this job:
 ========================================================
  
                  Total CPU time used (sec):        0.876
                            User time (sec):        0.702
                          System time (sec):        0.175
                         Elapsed time (sec):        1.633
  
                   Maximum memory used (kb):       70252.
                   Average memory used (kb):          N/A
  
                          Minor page faults:         9673
                          Major page faults:            0
                 Voluntary context switches:         1033
