<?xml version="1.0" encoding="ISO-8859-1"?>
<modeling>
 <generator>
  <i name="program" type="string">vasp </i>
  <i name="version" type="string">6.4.3  </i>
  <i name="subversion" type="string">19Mar24 (build Sep 18 2024 11:30:23) complex                          parallel </i>
  <i name="platform" type="string">LinuxIFC </i>
  <i name="date" type="string">2026 07 07 </i>
  <i name="time" type="string">17:16:19 </i>
 </generator>
 <incar>
  <i type="string" name="SYSTEM">N</i>
  <i type="int" name="ISTART">     0</i>
  <i type="string" name="PREC">Accurate</i>
  <i type="string" name="ALGO">Normal</i>
  <i type="int" name="ICHARG">     2</i>
  <i type="int" name="NELM">    60</i>
  <i type="int" name="IBRION">     2</i>
  <i name="EDIFF">      0.00000100</i>
  <i name="EDIFFG">     -0.01000000</i>
  <i type="int" name="NSW">   100</i>
  <i type="int" name="ISIF">     2</i>
  <i name="ENCUT">    400.00000000</i>
  <i name="POTIM">      0.50000000</i>
  <i type="logical" name="LREAL"> F  </i>
  <i type="int" name="ISMEAR">     0</i>
  <i name="SIGMA">      0.00500000</i>
  <i type="logical" name="LWAVE"> F  </i>
  <i type="logical" name="LCHARG"> F  </i>
 </incar>
 <primitive_cell>
  <structure name="primitive_cell" >
   <crystal>
    <varray name="basis" >
     <v>       4.44847177       0.00000000       0.00000000 </v>
     <v>       0.00000000       4.44847177       0.00000000 </v>
     <v>       0.00000000       0.00000000       4.96767487 </v>
    </varray>
    <i name="volume">     98.30482692 </i>
    <varray name="rec_basis" >
     <v>       0.22479630       0.00000000       0.00000000 </v>
     <v>       0.00000000       0.22479630       0.00000000 </v>
     <v>       0.00000000       0.00000000       0.20130142 </v>
    </varray>
   </crystal>
   <varray name="positions" >
    <v>       0.50000000       0.50000000       0.11243176 </v>
    <v>       0.50000000       0.50000000       0.88756824 </v>
   </varray>
  </structure>
  <varray name="primitive_index" >
   <v type="int" >        1 </v>
   <v type="int" >        2 </v>
  </varray>
 </primitive_cell>
 <kpoints>
  <generation param="Gamma">
   <v type="int" name="divisions">       1        1        1 </v>
   <v name="usershift">      0.00000000       0.00000000       0.00000000 </v>
   <v name="genvec1">      1.00000000       0.00000000       0.00000000 </v>
   <v name="genvec2">      0.00000000       1.00000000       0.00000000 </v>
   <v name="genvec3">      0.00000000       0.00000000       1.00000000 </v>
   <v name="shift">      0.00000000       0.00000000       0.00000000 </v>
  </generation>
  <varray name="kpointlist" >
   <v>       0.00000000       0.00000000       0.00000000 </v>
  </varray>
  <varray name="weights" >
   <v>       1.00000000 </v>
  </varray>
 </kpoints>
 <parameters>
  <separator name="general" >
   <i type="string" name="SYSTEM">N</i>
   <i type="logical" name="LCOMPAT"> F  </i>
  </separator>
  <separator name="electronic" >
   <i type="string" name="PREC">accura</i>
   <i name="ENMAX">    400.00000000</i>
   <i name="ENAUG">    627.11200000</i>
   <i name="EDIFF">      0.00000100</i>
   <i type="int" name="IALGO">    38</i>
   <i type="int" name="IWAVPR">    11</i>
   <i type="int" name="NBANDS">    28</i>
   <i type="int" name="NBANDSLOW">    -1</i>
   <i type="int" name="NBANDSHIGH">    -1</i>
   <i name="NELECT">     10.00000000</i>
   <i type="int" name="TURBO">     0</i>
   <i type="int" name="IRESTART">     0</i>
   <i type="int" name="NREBOOT">     0</i>
   <i type="int" name="NMIN">     0</i>
   <i name="EREF">      0.00000000</i>
   <separator name="electronic smearing" >
    <i type="int" name="ISMEAR">     0</i>
    <i name="SIGMA">      0.00500000</i>
    <i name="KSPACING">      0.50000000</i>
    <i type="logical" name="KGAMMA"> T  </i>
    <i type="logical" name="KBLOWUP"> T  </i>
   </separator>
   <separator name="electronic projectors" >
    <i type="logical" name="LREAL"> F  </i>
    <v name="ROPT">      0.00000000</v>
    <i type="int" name="LMAXPAW">  -100</i>
    <i type="int" name="LMAXMIX">     2</i>
    <i type="logical" name="NLSPLINE"> F  </i>
   </separator>
   <separator name="electronic startup" >
    <i type="int" name="ISTART">     0</i>
    <i type="int" name="ICHARG">     2</i>
    <i type="int" name="INIWAV">     1</i>
   </separator>
   <separator name="electronic spin" >
    <i type="int" name="ISPIN">     1</i>
    <i type="logical" name="LNONCOLLINEAR"> F  </i>
    <v name="MAGMOM">      1.00000000      1.00000000</v>
    <i name="NUPDOWN">     -1.00000000</i>
    <i type="logical" name="LSORBIT"> F  </i>
    <v name="SAXIS">      0.00000000      0.00000000      1.00000000</v>
    <i type="logical" name="LSPIRAL"> F  </i>
    <v name="QSPIRAL">      0.00000000      0.00000000      0.00000000</v>
    <i type="logical" name="LZEROZ"> F  </i>
   </separator>
   <separator name="electronic exchange-correlation" >
    <i type="logical" name="LASPH"> F  </i>
   </separator>
   <separator name="electronic convergence" >
    <i type="int" name="NELM">    60</i>
    <i type="int" name="NELMDL">    -5</i>
    <i type="int" name="NELMIN">     2</i>
    <i name="ENINI">    400.00000000</i>
    <separator name="electronic convergence detail" >
     <i type="logical" name="LDIAG"> T  </i>
     <i type="logical" name="LSUBROT"> F  </i>
     <i name="WEIMIN">      0.00100000</i>
     <i name="EBREAK">      0.00000001</i>
     <i name="DEPER">      0.30000000</i>
     <i type="int" name="NRMM">     4</i>
     <i name="TIME">      0.40000000</i>
    </separator>
   </separator>
   <separator name="electronic mixer" >
    <i name="AMIX">      0.40000000</i>
    <i name="BMIX">      1.00000000</i>
    <i name="AMIN">      0.10000000</i>
    <i name="AMIX_MAG">      1.60000000</i>
    <i name="BMIX_MAG">      1.00000000</i>
    <separator name="electronic mixer details" >
     <i type="int" name="IMIX">     4</i>
     <i type="logical" name="MIXFIRST"> F  </i>
     <i type="int" name="MAXMIX">   -45</i>
     <i name="WC">    100.00000000</i>
     <i type="int" name="INIMIX">     1</i>
     <i type="int" name="MIXPRE">     1</i>
     <i type="int" name="MREMOVE">     5</i>
    </separator>
   </separator>
   <separator name="electronic dipolcorrection" >
    <i type="logical" name="LDIPOL"> F  </i>
    <i type="logical" name="LMONO"> F  </i>
    <i type="int" name="IDIPOL">     0</i>
    <i name="EPSILON">      1.00000000</i>
    <v name="DIPOL">   -100.00000000   -100.00000000   -100.00000000</v>
    <i name="EFIELD">      0.00000000</i>
    <i type="logical" name="LVACPOTAV"> F  </i>
   </separator>
  </separator>
  <separator name="grids" >
   <i type="int" name="NGX">    30</i>
   <i type="int" name="NGY">    30</i>
   <i type="int" name="NGZ">    32</i>
   <i type="int" name="NGXF">    60</i>
   <i type="int" name="NGYF">    60</i>
   <i type="int" name="NGZF">    64</i>
   <i type="logical" name="ADDGRID"> F  </i>
  </separator>
  <separator name="ionic" >
   <i type="int" name="NSW">   100</i>
   <i type="int" name="IBRION">     2</i>
   <i type="int" name="MDALGO">     0</i>
   <i type="int" name="ISIF">     2</i>
   <i name="PSTRESS">      0.00000000</i>
   <i name="EDIFFG">     -0.01000000</i>
   <i type="int" name="NFREE">     1</i>
   <i name="POTIM">      0.50000000</i>
   <i name="SMASS">     -3.00000000</i>
   <i name="SCALEE">      1.00000000</i>
  </separator>
  <separator name="ionic md" >
   <i name="TEBEG">      0.00010000</i>
   <i name="TEEND">      0.00010000</i>
   <i type="int" name="NBLOCK">     1</i>
   <i type="int" name="KBLOCK">   100</i>
   <i type="int" name="NPACO">   256</i>
   <i name="APACO">     10.00000000</i>
  </separator>
  <separator name="symmetry" >
   <i type="int" name="ISYM">     2</i>
   <i name="SYMPREC">      0.00001000</i>
  </separator>
  <separator name="dos" >
   <i type="int" name="LORBIT">     0</i>
   <v name="RWIGS">     -1.00000000</v>
   <i type="int" name="NEDOS">   301</i>
   <i name="EMIN">     10.00000000</i>
   <i name="EMAX">    -10.00000000</i>
   <i name="EFERMI">      0.00000000</i>
  </separator>
  <separator name="writing" >
   <i type="int" name="NWRITE">     2</i>
   <i type="logical" name="LWAVE"> F  </i>
   <i type="logical" name="LDOWNSAMPLE"> F  </i>
   <i type="logical" name="LCHARG"> F  </i>
   <i type="logical" name="LPARD"> F  </i>
   <i type="logical" name="LVTOT"> F  </i>
   <i type="logical" name="LVHAR"> F  </i>
   <i type="logical" name="LELF"> F  </i>
   <i type="logical" name="LOPTICS"> F  </i>
   <v name="STM">      0.00000000      0.00000000      0.00000000      0.00000000      0.00000000      0.00000000      0.00000000</v>
  </separator>
  <separator name="performance" >
   <i type="int" name="NPAR">    28</i>
   <i type="int" name="NSIM">     4</i>
   <i type="int" name="NBLK">    -1</i>
   <i type="logical" name="LPLANE"> T  </i>
   <i type="logical" name="LSCALAPACK"> T  </i>
   <i type="logical" name="LSCAAWARE"> F  </i>
   <i type="logical" name="LSCALU"> F  </i>
   <i type="logical" name="LASYNC"> F  </i>
   <i type="logical" name="LORBITALREAL"> F  </i>
  </separator>
  <separator name="miscellaneous" >
   <i type="int" name="IDIOT">     3</i>
   <i type="int" name="PHON_NSTRUCT">    -1</i>
   <i type="logical" name="LMUSIC"> F  </i>
   <v name="POMASS">     14.00100000</v>
   <v name="DARWINR">      0.00000000</v>
   <v name="DARWINV">      1.00000000</v>
   <i type="logical" name="LCORR"> T  </i>
  </separator>
  <i type="logical" name="GGA_COMPAT"> T  </i>
  <i type="logical" name="LBERRY"> F  </i>
  <i type="int" name="ICORELEVEL">     0</i>
  <i type="logical" name="LDAU"> F  </i>
  <i type="int" name="I_CONSTRAINED_M">     0</i>
  <separator name="electronic exchange-correlation" >
   <i type="string" name="GGA    ">PE</i>
   <i type="string" name="XC_C">1</i>
   <i type="int" name="VOSKOWN">     0</i>
   <i type="logical" name="LHFCALC"> F  </i>
   <i type="string" name="PRECFOCK"></i>
   <i type="logical" name="LSYMGRAD"> F  </i>
   <i type="logical" name="LHFONE"> F  </i>
   <i type="logical" name="LRHFCALC"> F  </i>
   <i type="logical" name="LTHOMAS"> F  </i>
   <i type="logical" name="LMODELHF"> F  </i>
   <i type="logical" name="LFOCKACE"> F  </i>
   <i name="ENCUT4O">     -1.00000000</i>
   <i type="int" name="EXXOEP">     0</i>
   <i type="int" name="FOURORBIT">     0</i>
   <i name="AEXX">      0.00000000</i>
   <i name="HFALPHA">      0.00000000</i>
   <i name="MCALPHA">      0.00000000</i>
   <i name="ALDAX">      1.00000000</i>
   <i name="AGGAX">      1.00000000</i>
   <i name="AMGGAX">      1.00000000</i>
   <i name="ALDAC">      1.00000000</i>
   <i name="AGGAC">      1.00000000</i>
   <i name="AMGGAC">      1.00000000</i>
   <i type="int" name="NKREDX">     1</i>
   <i type="int" name="NKREDY">     1</i>
   <i type="int" name="NKREDZ">     1</i>
   <i type="logical" name="SHIFTRED"> F  </i>
   <i type="logical" name="ODDONLY"> F  </i>
   <i type="logical" name="EVENONLY"> F  </i>
   <i type="int" name="LMAXFOCK">     0</i>
   <i type="int" name="NMAXFOCKAE">     0</i>
   <i type="logical" name="LFOCKAEDFT"> F  </i>
   <i name="HFSCREEN">      0.00000000</i>
   <i name="HFSCREENC">      0.00000000</i>
   <i type="int" name="NBANDSGWLOW">     0</i>
  </separator>
  <separator name="vdW DFT" >
   <i type="logical" name="LUSE_VDW"> F  </i>
   <i type="int" name="IVDW_NL">    -1</i>
   <i type="logical" name="LSPIN_VDW"> F  </i>
   <i name="ZAB_VDW">     -0.84910000</i>
   <i name="GAMMA_VDW">      1.39626340</i>
   <i name="ALPHA_VDW">      0.00000000</i>
   <i name="PARAM1">      0.12340000</i>
   <i name="PARAM2">      1.00000000</i>
   <i name="BPARAM">      6.30000000</i>
   <i name="CPARAM">      0.00930000</i>
  </separator>
  <separator name="model GW" >
   <i type="int" name="MODEL_GW">     0</i>
   <i name="MODEL_EPS0">     29.49144808</i>
   <i name="MODEL_ALPHA">      1.00000000</i>
  </separator>
  <separator name="linear response parameters" >
   <i type="logical" name="LEPSILON"> F  </i>
   <i type="logical" name="LRPA"> F  </i>
   <i type="logical" name="LNABLA"> F  </i>
   <i type="logical" name="LVEL"> F  </i>
   <i name="CSHIFT">      0.10000000</i>
   <i name="OMEGAMAX">     -1.00000000</i>
   <i name="DEG_THRESHOLD">      0.00200000</i>
   <i name="RTIME">     -0.10000000</i>
   <i name="WPLASMAI">      0.00000000</i>
   <v name="DFIELD">      0.00000000      0.00000000      0.00000000</v>
   <v name="WPLASMA">      0.00000000      0.00000000      0.00000000      0.00000000      0.00000000      0.00000000      0.00000000      0.00000000      0.00000000</v>
  </separator>
  <separator name="orbital magnetization" >
   <i type="logical" name="NUCIND"> F  </i>
   <v name="MAGPOS">      0.00000000      0.00000000      0.00000000</v>
   <i type="logical" name="LNICSALL"> T  </i>
   <i type="logical" name="ORBITALMAG"> F  </i>
   <i type="logical" name="LMAGBLOCH"> F  </i>
   <i type="logical" name="LCHIMAG"> F  </i>
   <i type="logical" name="LGAUGE"> T  </i>
   <i type="int" name="MAGATOM">     0</i>
   <v name="MAGDIPOL">      0.00000000      0.00000000      0.00000000</v>
   <v name="AVECCONST">      0.00000000      0.00000000      0.00000000</v>
  </separator>
  <separator name="response functions" >
   <i type="logical" name="LALL_IN_ONE"> F  </i>
   <i type="int" name="IALL_IN_ONE">    -1</i>
   <i type="int" name="NBANDS_WAVE">    -1</i>
   <i type="logical" name="LFINITE_TEMPERATURE"> F  </i>
   <i type="logical" name="LADDER"> F  </i>
   <i type="logical" name="LRPAFORCE"> F  </i>
   <i type="logical" name="LFXC"> F  </i>
   <i type="logical" name="LHARTREE"> T  </i>
   <i type="int" name="IBSE">     0</i>
   <v type="int" name="KPOINT">    -1     0     0     0</v>
   <i type="logical" name="LTCTC"> F  </i>
   <i type="logical" name="LTCTE"> F  </i>
   <i type="logical" name="LTETE"> F  </i>
   <i type="logical" name="LTRIPLET"> F  </i>
   <i type="logical" name="LFXCEPS"> F  </i>
   <i type="logical" name="LFXHEG"> F  </i>
   <i type="int" name="NATURALO">     2</i>
   <i type="logical" name="LHOLEGF"> F  </i>
   <i type="logical" name="L2ORDER"> F  </i>
   <i type="logical" name="LDMP1"> F  </i>
   <i type="logical" name="LMP2LT"> F  </i>
   <i type="logical" name="LSMP2LT"> F  </i>
   <i type="logical" name="LGWLF"> F  </i>
   <i name="ENCUTGW">     -1.60000002</i>
   <i name="ENCUTGWSOFT">     -1.60000002</i>
   <i name="ENCUTLF">     -1.00000000</i>
   <i type="logical" name="ESF_SPLINES"> F  </i>
   <i name="ESF_CONV">      0.01000000</i>
   <i type="int" name="ESF_NINTER">    15</i>
   <i type="int" name="LMAXMP2">    -1</i>
   <i name="SCISSOR">      0.00000000</i>
   <i type="int" name="NOMEGA">     0</i>
   <i type="int" name="NOMEGAR">     0</i>
   <i type="int" name="NBANDSGW">    -1</i>
   <i type="int" name="NBANDSO">    -1</i>
   <i type="int" name="NBANDSV">    -1</i>
   <i type="int" name="NELMGW">     1</i>
   <i type="int" name="NELMHF">     1</i>
   <i type="int" name="DIM">     3</i>
   <i type="int" name="IESPILON">     4</i>
   <i type="int" name="ANTIRES">     0</i>
   <i name="OMEGAMAX">    -30.00000000</i>
   <i name="OMEGAMIN">    -30.00000000</i>
   <i name="OMEGATL">   -200.00000000</i>
   <i type="int" name="OMEGAGRID">     0</i>
   <i name="CSHIFT">     -0.10000000</i>
   <i type="logical" name="LSELFENERGY"> F  </i>
   <i type="logical" name="LSPECTRAL"> F  </i>
   <i type="logical" name="LSPECTRALGW"> F  </i>
   <i type="logical" name="LSINGLES"> F  </i>
   <i type="logical" name="LFERMIGW"> F  </i>
   <i type="logical" name="ODDONLYGW"> F  </i>
   <i type="logical" name="EVENONLYGW"> F  </i>
   <i type="int" name="NKREDLFX">     1</i>
   <i type="int" name="NKREDLFY">     1</i>
   <i type="int" name="NKREDLFZ">     1</i>
   <i type="int" name="MAXMEM">  2800</i>
   <i type="int" name="TELESCOPE">     0</i>
   <i type="int" name="NTAUPAR">    -1</i>
   <i type="int" name="NOMEGAPAR">    -1</i>
   <i name="DAMP_NEWTON">      0.80000001</i>
   <i name="LAMBDA">      1.00000000</i>
  </separator>
  <separator name="External order field" >
   <i name="OFIELD_KAPPA">      0.00000000</i>
   <v name="OFIELD_K">      0.00000000      0.00000000      0.00000000</v>
   <i name="OFIELD_Q6_NEAR">      0.00000000</i>
   <i name="OFIELD_Q6_FAR">      0.00000000</i>
   <i name="OFIELD_A">      0.00000000</i>
  </separator>
  <separator name="optional k-points parameters" >
   <i type="int" name="KPOINTS_OPT_MODE">     1</i>
   <i type="logical" name="LKPOINTS_OPT"> F  </i>
  </separator>
  <separator name="solvation model" >
   <i type="logical" name="LSOL"> F  </i>
  </separator>
 </parameters>
 <atominfo>
  <atoms>       2 </atoms>
  <types>       1 </types>
  <array name="atoms" >
   <dimension dim="1">ion</dimension>
   <field type="string">element</field>
   <field type="int">atomtype</field>
   <set>
    <rc><c>N </c><c>   1</c></rc>
    <rc><c>N </c><c>   1</c></rc>
   </set>
  </array>
  <array name="atomtypes" >
   <dimension dim="1">type</dimension>
   <field type="int">atomspertype</field>
   <field type="string">element</field>
   <field>mass</field>
   <field>valence</field>
   <field type="string">pseudopotential</field>
   <set>
    <rc><c>   2</c><c>N </c><c>     14.00100000</c><c>      5.00000000</c><c> PAW_PBE N 08Apr2002                    </c></rc>
   </set>
  </array>
 </atominfo>
 <structure name="initialpos" >
  <crystal>
   <varray name="basis" >
    <v>       4.44847177       0.00000000       0.00000000 </v>
    <v>       0.00000000       4.44847177       0.00000000 </v>
    <v>       0.00000000       0.00000000       4.96767487 </v>
   </varray>
   <i name="volume">     98.30482692 </i>
   <varray name="rec_basis" >
    <v>       0.22479630       0.00000000       0.00000000 </v>
    <v>       0.00000000       0.22479630       0.00000000 </v>
    <v>       0.00000000       0.00000000       0.20130142 </v>
   </varray>
  </crystal>
  <varray name="positions" >
   <v>       0.50000000       0.50000000       0.11243176 </v>
   <v>       0.50000000       0.50000000       0.88756824 </v>
  </varray>
 </structure>
 <calculation>
  <scstep>
   <time name="dav">    0.03    0.04</time>
   <time name="total">    0.05    0.08</time>
   <energy>
    <i name="alphaZ">      4.37930459 </i>
    <i name="ewald">   -111.28462631 </i>
    <i name="hartreedc">   -322.61242007 </i>
    <i name="XCdc">     38.36077322 </i>
    <i name="pawpsdc">    224.09405147 </i>
    <i name="pawaedc">   -226.85359355 </i>
    <i name="eentropy">     -0.00000000 </i>
    <i name="bandstr">   -116.88585979 </i>
    <i name="atom">    528.95000483 </i>
    <i name="e_fr_energy">     18.14763438 </i>
    <i name="e_wo_entrp">     18.14763438 </i>
    <i name="e_0_energy">     18.14763438 </i>
   </energy>
  </scstep>
  <scstep>
   <time name="dav">    0.03    0.35</time>
   <time name="total">    0.03    0.35</time>
   <energy>
    <i name="e_fr_energy">    -17.25491691 </i>
    <i name="e_wo_entrp">    -17.25491691 </i>
    <i name="e_0_energy">    -17.25491691 </i>
   </energy>
  </scstep>
  <scstep>
   <time name="dav">    0.01    0.01</time>
   <time name="total">    0.01    0.01</time>
   <energy>
    <i name="e_fr_energy">    -17.44248022 </i>
    <i name="e_wo_entrp">    -17.44248022 </i>
    <i name="e_0_energy">    -17.44248022 </i>
   </energy>
  </scstep>
  <scstep>
   <time name="dav">    0.01    0.01</time>
   <time name="total">    0.01    0.01</time>
   <energy>
    <i name="e_fr_energy">    -17.44286996 </i>
    <i name="e_wo_entrp">    -17.44286996 </i>
    <i name="e_0_energy">    -17.44286996 </i>
   </energy>
  </scstep>
  <scstep>
   <time name="dav">    0.01    0.01</time>
   <time name="total">    0.01    0.03</time>
   <energy>
    <i name="e_fr_energy">    -17.44286999 </i>
    <i name="e_wo_entrp">    -17.44286999 </i>
    <i name="e_0_energy">    -17.44286999 </i>
   </energy>
  </scstep>
  <scstep>
   <time name="dav">    0.01    0.01</time>
   <time name="total">    0.02    0.02</time>
   <energy>
    <i name="e_fr_energy">    -16.82721591 </i>
    <i name="e_wo_entrp">    -16.82721591 </i>
    <i name="e_0_energy">    -16.82721591 </i>
   </energy>
  </scstep>
  <scstep>
   <time name="dav">    0.01    0.01</time>
   <time name="total">    0.02    0.02</time>
   <energy>
    <i name="e_fr_energy">    -16.67986831 </i>
    <i name="e_wo_entrp">    -16.67986831 </i>
    <i name="e_0_energy">    -16.67986831 </i>
   </energy>
  </scstep>
  <scstep>
   <time name="dav">    0.01    0.01</time>
   <time name="total">    0.02    0.02</time>
   <energy>
    <i name="e_fr_energy">    -16.67379221 </i>
    <i name="e_wo_entrp">    -16.67379221 </i>
    <i name="e_0_energy">    -16.67379221 </i>
   </energy>
  </scstep>
  <scstep>
   <time name="dav">    0.01    0.01</time>
   <time name="total">    0.02    0.02</time>
   <energy>
    <i name="e_fr_energy">    -16.67353427 </i>
    <i name="e_wo_entrp">    -16.67353427 </i>
    <i name="e_0_energy">    -16.67353427 </i>
   </energy>
  </scstep>
  <scstep>
   <time name="dav">    0.01    0.01</time>
   <time name="total">    0.02    0.02</time>
   <energy>
    <i name="e_fr_energy">    -16.67354801 </i>
    <i name="e_wo_entrp">    -16.67354801 </i>
    <i name="e_0_energy">    -16.67354801 </i>
   </energy>
  </scstep>
  <scstep>
   <time name="dav">    0.01    0.01</time>
   <time name="total">    0.02    0.02</time>
   <energy>
    <i name="e_fr_energy">    -16.67354391 </i>
    <i name="e_wo_entrp">    -16.67354391 </i>
    <i name="e_0_energy">    -16.67354391 </i>
   </energy>
  </scstep>
  <scstep>
   <time name="dav">    0.01    0.01</time>
   <time name="total">    0.02    0.02</time>
   <energy>
    <i name="e_fr_energy">    -16.67354263 </i>
    <i name="e_wo_entrp">    -16.67354263 </i>
    <i name="e_0_energy">    -16.67354263 </i>
   </energy>
  </scstep>
  <scstep>
   <time name="dav">    0.02    0.02</time>
   <time name="total">    0.03    0.03</time>
   <energy>
    <i name="alphaZ">      4.37930459 </i>
    <i name="ewald">   -111.28462631 </i>
    <i name="hartreedc">   -340.37630091 </i>
    <i name="XCdc">     39.48744420 </i>
    <i name="pawpsdc">    312.66432297 </i>
    <i name="pawaedc">   -315.72826913 </i>
    <i name="eentropy">     -0.00000000 </i>
    <i name="bandstr">   -134.76542286 </i>
    <i name="atom">    528.95000483 </i>
    <i name="e_fr_energy">    -16.67354261 </i>
    <i name="e_wo_entrp">    -16.67354261 </i>
    <i name="e_0_energy">    -16.67354261 </i>
   </energy>
  </scstep>
  <structure>
   <crystal>
    <varray name="basis" >
     <v>       4.44847177       0.00000000       0.00000000 </v>
     <v>       0.00000000       4.44847177       0.00000000 </v>
     <v>       0.00000000       0.00000000       4.96767487 </v>
    </varray>
    <i name="volume">     98.30482692 </i>
    <varray name="rec_basis" >
     <v>       0.22479630       0.00000000       0.00000000 </v>
     <v>       0.00000000       0.22479630       0.00000000 </v>
     <v>       0.00000000       0.00000000       0.20130142 </v>
    </varray>
   </crystal>
   <varray name="positions" >
    <v>       0.50000000       0.50000000       0.11243176 </v>
    <v>       0.50000000       0.50000000       0.88756824 </v>
   </varray>
  </structure>
  <varray name="forces" >
   <v>       0.00000000      -0.00000000      -0.04173856 </v>
   <v>      -0.00000000       0.00000000       0.04173856 </v>
  </varray>
  <varray name="stress" >
   <v>     -14.74747215       0.00000000       0.00000000 </v>
   <v>       0.00000000     -14.74747215      -0.00000000 </v>
   <v>       0.00000000       0.00000000     -38.73884697 </v>
  </varray>
  <energy>
   <i name="e_fr_energy">    -16.67354261 </i>
   <i name="e_wo_entrp">    -16.67354261 </i>
   <i name="e_0_energy">    -16.67354261 </i>
  </energy>
  <time name="totalsc">    0.33    0.71</time>
 </calculation>
 <calculation>
  <scstep>
   <time name="dav">    0.01    0.01</time>
   <time name="total">    0.03    0.03</time>
   <energy>
    <i name="alphaZ">      4.37930459 </i>
    <i name="ewald">   -110.17609775 </i>
    <i name="hartreedc">   -341.01766147 </i>
    <i name="XCdc">     39.50847178 </i>
    <i name="pawpsdc">    312.67152543 </i>
    <i name="pawaedc">   -315.73544121 </i>
    <i name="eentropy">     -0.00000000 </i>
    <i name="bandstr">   -135.25275054 </i>
    <i name="atom">    528.95000483 </i>
    <i name="e_fr_energy">    -16.67264433 </i>
    <i name="e_wo_entrp">    -16.67264433 </i>
    <i name="e_0_energy">    -16.67264433 </i>
   </energy>
  </scstep>
  <scstep>
   <time name="dav">    0.01    0.01</time>
   <time name="total">    0.02    0.02</time>
   <energy>
    <i name="e_fr_energy">    -16.67250617 </i>
    <i name="e_wo_entrp">    -16.67250617 </i>
    <i name="e_0_energy">    -16.67250617 </i>
   </energy>
  </scstep>
  <scstep>
   <time name="dav">    0.01    0.01</time>
   <time name="total">    0.02    0.02</time>
   <energy>
    <i name="e_fr_energy">    -16.67248180 </i>
    <i name="e_wo_entrp">    -16.67248180 </i>
    <i name="e_0_energy">    -16.67248180 </i>
   </energy>
  </scstep>
  <scstep>
   <time name="dav">    0.01    0.01</time>
   <time name="total">    0.01    0.01</time>
   <energy>
    <i name="alphaZ">      4.37930459 </i>
    <i name="ewald">   -110.17609775 </i>
    <i name="hartreedc">   -341.27798761 </i>
    <i name="XCdc">     39.52385657 </i>
    <i name="pawpsdc">    313.98001843 </i>
    <i name="pawaedc">   -317.05279174 </i>
    <i name="eentropy">     -0.00000000 </i>
    <i name="bandstr">   -134.99878870 </i>
    <i name="atom">    528.95000483 </i>
    <i name="e_fr_energy">    -16.67248138 </i>
    <i name="e_wo_entrp">    -16.67248138 </i>
    <i name="e_0_energy">    -16.67248138 </i>
   </energy>
  </scstep>
  <structure>
   <crystal>
    <varray name="basis" >
     <v>       4.44847177       0.00000000       0.00000000 </v>
     <v>       0.00000000       4.44847177       0.00000000 </v>
     <v>       0.00000000       0.00000000       4.96767487 </v>
    </varray>
    <i name="volume">     98.30482692 </i>
    <varray name="rec_basis" >
     <v>       0.22479630       0.00000000       0.00000000 </v>
     <v>       0.00000000       0.22479630       0.00000000 </v>
     <v>       0.00000000       0.00000000       0.20130142 </v>
    </varray>
   </crystal>
   <varray name="positions" >
    <v>       0.50000000       0.50000000       0.11202642 </v>
    <v>       0.50000000       0.50000000       0.88797358 </v>
   </varray>
  </structure>
  <varray name="forces" >
   <v>       0.00000000      -0.00000000       0.57239530 </v>
   <v>      -0.00000000       0.00000000      -0.57239530 </v>
  </varray>
  <varray name="stress" >
   <v>     -14.88640699       0.00000000       0.00000000 </v>
   <v>       0.00000000     -14.88640699       0.00000000 </v>
   <v>       0.00000000      -0.00000000     -27.63642574 </v>
  </varray>
  <energy>
   <i name="e_fr_energy">    -16.67248138 </i>
   <i name="e_wo_entrp">    -16.67248138 </i>
   <i name="e_0_energy">    -16.67248138 </i>
  </energy>
  <time name="totalsc">    0.10    0.11</time>
 </calculation>
 <calculation>
  <scstep>
   <time name="dav">    0.01    0.01</time>
   <time name="total">    0.02    0.02</time>
   <energy>
    <i name="alphaZ">      4.37930459 </i>
    <i name="ewald">   -111.20830661 </i>
    <i name="hartreedc">   -340.68133157 </i>
    <i name="XCdc">     39.50436063 </i>
    <i name="pawpsdc">    314.03580032 </i>
    <i name="pawaedc">   -317.10896952 </i>
    <i name="eentropy">     -0.00000000 </i>
    <i name="bandstr">   -134.54455767 </i>
    <i name="atom">    528.95000483 </i>
    <i name="e_fr_energy">    -16.67369500 </i>
    <i name="e_wo_entrp">    -16.67369500 </i>
    <i name="e_0_energy">    -16.67369500 </i>
   </energy>
  </scstep>
  <scstep>
   <time name="dav">    0.01    0.01</time>
   <time name="total">    0.02    0.02</time>
   <energy>
    <i name="e_fr_energy">    -16.67357152 </i>
    <i name="e_wo_entrp">    -16.67357152 </i>
    <i name="e_0_energy">    -16.67357152 </i>
   </energy>
  </scstep>
  <scstep>
   <time name="dav">    0.01    0.01</time>
   <time name="total">    0.02    0.02</time>
   <energy>
    <i name="e_fr_energy">    -16.67354931 </i>
    <i name="e_wo_entrp">    -16.67354931 </i>
    <i name="e_0_energy">    -16.67354931 </i>
   </energy>
  </scstep>
  <scstep>
   <time name="dav">    0.01    0.01</time>
   <time name="total">    0.01    0.01</time>
   <energy>
    <i name="alphaZ">      4.37930459 </i>
    <i name="ewald">   -111.20830661 </i>
    <i name="hartreedc">   -340.43789368 </i>
    <i name="XCdc">     39.48998991 </i>
    <i name="pawpsdc">    312.80943624 </i>
    <i name="pawaedc">   -315.87428120 </i>
    <i name="eentropy">     -0.00000000 </i>
    <i name="bandstr">   -134.78180292 </i>
    <i name="atom">    528.95000483 </i>
    <i name="e_fr_energy">    -16.67354884 </i>
    <i name="e_wo_entrp">    -16.67354884 </i>
    <i name="e_0_energy">    -16.67354884 </i>
   </energy>
  </scstep>
  <structure>
   <crystal>
    <varray name="basis" >
     <v>       4.44847177       0.00000000       0.00000000 </v>
     <v>       0.00000000       4.44847177       0.00000000 </v>
     <v>       0.00000000       0.00000000       4.96767487 </v>
    </varray>
    <i name="volume">     98.30482692 </i>
    <varray name="rec_basis" >
     <v>       0.22479630       0.00000000       0.00000000 </v>
     <v>       0.00000000       0.22479630       0.00000000 </v>
     <v>       0.00000000       0.00000000       0.20130142 </v>
    </varray>
   </crystal>
   <varray name="positions" >
    <v>       0.50000000       0.50000000       0.11240375 </v>
    <v>       0.50000000       0.50000000       0.88759625 </v>
   </varray>
  </structure>
  <varray name="forces" >
   <v>      -0.00000000      -0.00000000       0.00042147 </v>
   <v>       0.00000000       0.00000000      -0.00042147 </v>
  </varray>
  <varray name="stress" >
   <v>     -14.77935559       0.00000000       0.00000000 </v>
   <v>       0.00000000     -14.77935559      -0.00000000 </v>
   <v>       0.00000000       0.00000000     -37.96486208 </v>
  </varray>
  <energy>
   <i name="e_fr_energy">    -16.67354884 </i>
   <i name="e_wo_entrp">    -16.67354884 </i>
   <i name="e_0_energy">    -16.67354884 </i>
  </energy>
  <time name="totalsc">    0.09    0.10</time>
  <eigenvalues>
   <array>
    <dimension dim="1">band</dimension>
    <dimension dim="2">kpoint</dimension>
    <dimension dim="3">spin</dimension>
    <field>eigene</field>
    <field>occ</field>
    <set>
     <set comment="spin 1">
      <set comment="kpoint 1">
       <r>  -26.6203    1.0000 </r>
       <r>  -12.0394    1.0000 </r>
       <r>   -9.9480    1.0000 </r>
       <r>   -9.9480    1.0000 </r>
       <r>   -8.8351    1.0000 </r>
       <r>   -0.4470    0.0000 </r>
       <r>   -0.4470    0.0000 </r>
       <r>    0.6579    0.0000 </r>
       <r>    4.8718    0.0000 </r>
       <r>    5.5411    0.0000 </r>
       <r>    6.4628    0.0000 </r>
       <r>    7.3492    0.0000 </r>
       <r>    7.3492    0.0000 </r>
       <r>   10.1963    0.0000 </r>
       <r>   11.2954    0.0000 </r>
       <r>   11.7864    0.0000 </r>
       <r>   12.1369    0.0000 </r>
       <r>   12.2614    0.0000 </r>
       <r>   12.2614    0.0000 </r>
       <r>   13.0549    0.0000 </r>
       <r>   13.7094    0.0000 </r>
       <r>   13.7094    0.0000 </r>
       <r>   14.4026    0.0000 </r>
       <r>   15.7572    0.0000 </r>
       <r>   15.7572    0.0000 </r>
       <r>   17.0171    0.0000 </r>
       <r>   17.9535    0.0000 </r>
       <r>   18.6497    0.0000 </r>
      </set>
     </set>
    </set>
   </array>
  </eigenvalues>
  <separator name="orbital magnetization" >
   <v name="MAGDIPOLOUT">      0.00000000      0.00000000      0.00000000</v>
  </separator>
  <dos>
   <i name="efermi">     -8.75752639 </i>
   <total>
    <array>
     <dimension dim="1">gridpoints</dimension>
     <dimension dim="2">spin</dimension>
     <field>energy</field>
     <field>total</field>
     <field>integrated</field>
     <set>
      <set comment="spin 1">
       <r>   -28.8839     0.0000     0.0000 </r>
       <r>   -28.7179     0.0000     0.0000 </r>
       <r>   -28.5519     0.0000     0.0000 </r>
       <r>   -28.3859     0.0000     0.0000 </r>
       <r>   -28.2199     0.0000     0.0000 </r>
       <r>   -28.0539     0.0000     0.0000 </r>
       <r>   -27.8879     0.0000     0.0000 </r>
       <r>   -27.7219     0.0000     0.0000 </r>
       <r>   -27.5559     0.0000     0.0000 </r>
       <r>   -27.3899     0.0000     0.0000 </r>
       <r>   -27.2239     0.0000     0.0000 </r>
       <r>   -27.0580     0.0000     0.0000 </r>
       <r>   -26.8920     0.0000     0.0000 </r>
       <r>   -26.7260     0.0000     0.0000 </r>
       <r>   -26.5600     0.0000     2.0000 </r>
       <r>   -26.3940     0.0000     2.0000 </r>
       <r>   -26.2280     0.0000     2.0000 </r>
       <r>   -26.0620     0.0000     2.0000 </r>
       <r>   -25.8960     0.0000     2.0000 </r>
       <r>   -25.7300     0.0000     2.0000 </r>
       <r>   -25.5640     0.0000     2.0000 </r>
       <r>   -25.3981     0.0000     2.0000 </r>
       <r>   -25.2321     0.0000     2.0000 </r>
       <r>   -25.0661     0.0000     2.0000 </r>
       <r>   -24.9001     0.0000     2.0000 </r>
       <r>   -24.7341     0.0000     2.0000 </r>
       <r>   -24.5681     0.0000     2.0000 </r>
       <r>   -24.4021     0.0000     2.0000 </r>
       <r>   -24.2361     0.0000     2.0000 </r>
       <r>   -24.0701     0.0000     2.0000 </r>
       <r>   -23.9041     0.0000     2.0000 </r>
       <r>   -23.7382     0.0000     2.0000 </r>
       <r>   -23.5722     0.0000     2.0000 </r>
       <r>   -23.4062     0.0000     2.0000 </r>
       <r>   -23.2402     0.0000     2.0000 </r>
       <r>   -23.0742     0.0000     2.0000 </r>
       <r>   -22.9082     0.0000     2.0000 </r>
       <r>   -22.7422     0.0000     2.0000 </r>
       <r>   -22.5762     0.0000     2.0000 </r>
       <r>   -22.4102     0.0000     2.0000 </r>
       <r>   -22.2442     0.0000     2.0000 </r>
       <r>   -22.0782     0.0000     2.0000 </r>
       <r>   -21.9123     0.0000     2.0000 </r>
       <r>   -21.7463     0.0000     2.0000 </r>
       <r>   -21.5803     0.0000     2.0000 </r>
       <r>   -21.4143     0.0000     2.0000 </r>
       <r>   -21.2483     0.0000     2.0000 </r>
       <r>   -21.0823     0.0000     2.0000 </r>
       <r>   -20.9163     0.0000     2.0000 </r>
       <r>   -20.7503     0.0000     2.0000 </r>
       <r>   -20.5843     0.0000     2.0000 </r>
       <r>   -20.4183     0.0000     2.0000 </r>
       <r>   -20.2524     0.0000     2.0000 </r>
       <r>   -20.0864     0.0000     2.0000 </r>
       <r>   -19.9204     0.0000     2.0000 </r>
       <r>   -19.7544     0.0000     2.0000 </r>
       <r>   -19.5884     0.0000     2.0000 </r>
       <r>   -19.4224     0.0000     2.0000 </r>
       <r>   -19.2564     0.0000     2.0000 </r>
       <r>   -19.0904     0.0000     2.0000 </r>
       <r>   -18.9244     0.0000     2.0000 </r>
       <r>   -18.7584     0.0000     2.0000 </r>
       <r>   -18.5925     0.0000     2.0000 </r>
       <r>   -18.4265     0.0000     2.0000 </r>
       <r>   -18.2605     0.0000     2.0000 </r>
       <r>   -18.0945     0.0000     2.0000 </r>
       <r>   -17.9285     0.0000     2.0000 </r>
       <r>   -17.7625     0.0000     2.0000 </r>
       <r>   -17.5965     0.0000     2.0000 </r>
       <r>   -17.4305     0.0000     2.0000 </r>
       <r>   -17.2645     0.0000     2.0000 </r>
       <r>   -17.0985     0.0000     2.0000 </r>
       <r>   -16.9325     0.0000     2.0000 </r>
       <r>   -16.7666     0.0000     2.0000 </r>
       <r>   -16.6006     0.0000     2.0000 </r>
       <r>   -16.4346     0.0000     2.0000 </r>
       <r>   -16.2686     0.0000     2.0000 </r>
       <r>   -16.1026     0.0000     2.0000 </r>
       <r>   -15.9366     0.0000     2.0000 </r>
       <r>   -15.7706     0.0000     2.0000 </r>
       <r>   -15.6046     0.0000     2.0000 </r>
       <r>   -15.4386     0.0000     2.0000 </r>
       <r>   -15.2726     0.0000     2.0000 </r>
       <r>   -15.1067     0.0000     2.0000 </r>
       <r>   -14.9407     0.0000     2.0000 </r>
       <r>   -14.7747     0.0000     2.0000 </r>
       <r>   -14.6087     0.0000     2.0000 </r>
       <r>   -14.4427     0.0000     2.0000 </r>
       <r>   -14.2767     0.0000     2.0000 </r>
       <r>   -14.1107     0.0000     2.0000 </r>
       <r>   -13.9447     0.0000     2.0000 </r>
       <r>   -13.7787     0.0000     2.0000 </r>
       <r>   -13.6127     0.0000     2.0000 </r>
       <r>   -13.4468     0.0000     2.0000 </r>
       <r>   -13.2808     0.0000     2.0000 </r>
       <r>   -13.1148     0.0000     2.0000 </r>
       <r>   -12.9488     0.0000     2.0000 </r>
       <r>   -12.7828     0.0000     2.0000 </r>
       <r>   -12.6168     0.0000     2.0000 </r>
       <r>   -12.4508     0.0000     2.0000 </r>
       <r>   -12.2848     0.0000     2.0000 </r>
       <r>   -12.1188     0.0000     2.0000 </r>
       <r>   -11.9528     0.0000     4.0000 </r>
       <r>   -11.7868     0.0000     4.0000 </r>
       <r>   -11.6209     0.0000     4.0000 </r>
       <r>   -11.4549     0.0000     4.0000 </r>
       <r>   -11.2889     0.0000     4.0000 </r>
       <r>   -11.1229     0.0000     4.0000 </r>
       <r>   -10.9569     0.0000     4.0000 </r>
       <r>   -10.7909     0.0000     4.0000 </r>
       <r>   -10.6249     0.0000     4.0000 </r>
       <r>   -10.4589     0.0000     4.0000 </r>
       <r>   -10.2929     0.0000     4.0000 </r>
       <r>   -10.1269     0.0000     4.0000 </r>
       <r>    -9.9610     0.0031     4.0005 </r>
       <r>    -9.7950     0.0000     8.0000 </r>
       <r>    -9.6290     0.0000     8.0000 </r>
       <r>    -9.4630     0.0000     8.0000 </r>
       <r>    -9.2970     0.0000     8.0000 </r>
       <r>    -9.1310     0.0000     8.0000 </r>
       <r>    -8.9650     0.0000     8.0000 </r>
       <r>    -8.7990    12.0489    10.0000 </r>
       <r>    -8.6330     0.0000    10.0000 </r>
       <r>    -8.4670     0.0000    10.0000 </r>
       <r>    -8.3011     0.0000    10.0000 </r>
       <r>    -8.1351     0.0000    10.0000 </r>
       <r>    -7.9691     0.0000    10.0000 </r>
       <r>    -7.8031     0.0000    10.0000 </r>
       <r>    -7.6371     0.0000    10.0000 </r>
       <r>    -7.4711     0.0000    10.0000 </r>
       <r>    -7.3051     0.0000    10.0000 </r>
       <r>    -7.1391     0.0000    10.0000 </r>
       <r>    -6.9731     0.0000    10.0000 </r>
       <r>    -6.8071     0.0000    10.0000 </r>
       <r>    -6.6412     0.0000    10.0000 </r>
       <r>    -6.4752     0.0000    10.0000 </r>
       <r>    -6.3092     0.0000    10.0000 </r>
       <r>    -6.1432     0.0000    10.0000 </r>
       <r>    -5.9772     0.0000    10.0000 </r>
       <r>    -5.8112     0.0000    10.0000 </r>
       <r>    -5.6452     0.0000    10.0000 </r>
       <r>    -5.4792     0.0000    10.0000 </r>
       <r>    -5.3132     0.0000    10.0000 </r>
       <r>    -5.1472     0.0000    10.0000 </r>
       <r>    -4.9812     0.0000    10.0000 </r>
       <r>    -4.8153     0.0000    10.0000 </r>
       <r>    -4.6493     0.0000    10.0000 </r>
       <r>    -4.4833     0.0000    10.0000 </r>
       <r>    -4.3173     0.0000    10.0000 </r>
       <r>    -4.1513     0.0000    10.0000 </r>
       <r>    -3.9853     0.0000    10.0000 </r>
       <r>    -3.8193     0.0000    10.0000 </r>
       <r>    -3.6533     0.0000    10.0000 </r>
       <r>    -3.4873     0.0000    10.0000 </r>
       <r>    -3.3213     0.0000    10.0000 </r>
       <r>    -3.1554     0.0000    10.0000 </r>
       <r>    -2.9894     0.0000    10.0000 </r>
       <r>    -2.8234     0.0000    10.0000 </r>
       <r>    -2.6574     0.0000    10.0000 </r>
       <r>    -2.4914     0.0000    10.0000 </r>
       <r>    -2.3254     0.0000    10.0000 </r>
       <r>    -2.1594     0.0000    10.0000 </r>
       <r>    -1.9934     0.0000    10.0000 </r>
       <r>    -1.8274     0.0000    10.0000 </r>
       <r>    -1.6614     0.0000    10.0000 </r>
       <r>    -1.4955     0.0000    10.0000 </r>
       <r>    -1.3295     0.0000    10.0000 </r>
       <r>    -1.1635     0.0000    10.0000 </r>
       <r>    -0.9975     0.0000    10.0000 </r>
       <r>    -0.8315     0.0000    10.0000 </r>
       <r>    -0.6655     0.0000    10.0000 </r>
       <r>    -0.4995     0.0000    10.0000 </r>
       <r>    -0.3335     0.0000    14.0000 </r>
       <r>    -0.1675     0.0000    14.0000 </r>
       <r>    -0.0015     0.0000    14.0000 </r>
       <r>     0.1645     0.0000    14.0000 </r>
       <r>     0.3304     0.0000    14.0000 </r>
       <r>     0.4964     0.0000    14.0000 </r>
       <r>     0.6624    10.8457    15.8003 </r>
       <r>     0.8284     0.0000    16.0000 </r>
       <r>     0.9944     0.0000    16.0000 </r>
       <r>     1.1604     0.0000    16.0000 </r>
       <r>     1.3264     0.0000    16.0000 </r>
       <r>     1.4924     0.0000    16.0000 </r>
       <r>     1.6584     0.0000    16.0000 </r>
       <r>     1.8244     0.0000    16.0000 </r>
       <r>     1.9903     0.0000    16.0000 </r>
       <r>     2.1563     0.0000    16.0000 </r>
       <r>     2.3223     0.0000    16.0000 </r>
       <r>     2.4883     0.0000    16.0000 </r>
       <r>     2.6543     0.0000    16.0000 </r>
       <r>     2.8203     0.0000    16.0000 </r>
       <r>     2.9863     0.0000    16.0000 </r>
       <r>     3.1523     0.0000    16.0000 </r>
       <r>     3.3183     0.0000    16.0000 </r>
       <r>     3.4843     0.0000    16.0000 </r>
       <r>     3.6502     0.0000    16.0000 </r>
       <r>     3.8162     0.0000    16.0000 </r>
       <r>     3.9822     0.0000    16.0000 </r>
       <r>     4.1482     0.0000    16.0000 </r>
       <r>     4.3142     0.0000    16.0000 </r>
       <r>     4.4802     0.0000    16.0000 </r>
       <r>     4.6462     0.0000    16.0000 </r>
       <r>     4.8122     0.0000    16.0000 </r>
       <r>     4.9782     0.0000    18.0000 </r>
       <r>     5.1442     0.0000    18.0000 </r>
       <r>     5.3102     0.0000    18.0000 </r>
       <r>     5.4761     0.0000    18.0000 </r>
       <r>     5.6421     0.0000    20.0000 </r>
       <r>     5.8081     0.0000    20.0000 </r>
       <r>     5.9741     0.0000    20.0000 </r>
       <r>     6.1401     0.0000    20.0000 </r>
       <r>     6.3061     0.0000    20.0000 </r>
       <r>     6.4721    11.9973    21.9914 </r>
       <r>     6.6381     0.0000    22.0000 </r>
       <r>     6.8041     0.0000    22.0000 </r>
       <r>     6.9701     0.0000    22.0000 </r>
       <r>     7.1360     0.0000    22.0000 </r>
       <r>     7.3020     0.0000    22.0000 </r>
       <r>     7.4680     0.0000    26.0000 </r>
       <r>     7.6340     0.0000    26.0000 </r>
       <r>     7.8000     0.0000    26.0000 </r>
       <r>     7.9660     0.0000    26.0000 </r>
       <r>     8.1320     0.0000    26.0000 </r>
       <r>     8.2980     0.0000    26.0000 </r>
       <r>     8.4640     0.0000    26.0000 </r>
       <r>     8.6300     0.0000    26.0000 </r>
       <r>     8.7959     0.0000    26.0000 </r>
       <r>     8.9619     0.0000    26.0000 </r>
       <r>     9.1279     0.0000    26.0000 </r>
       <r>     9.2939     0.0000    26.0000 </r>
       <r>     9.4599     0.0000    26.0000 </r>
       <r>     9.6259     0.0000    26.0000 </r>
       <r>     9.7919     0.0000    26.0000 </r>
       <r>     9.9579     0.0000    26.0000 </r>
       <r>    10.1239     0.0000    26.0000 </r>
       <r>    10.2899     0.0000    28.0000 </r>
       <r>    10.4559     0.0000    28.0000 </r>
       <r>    10.6218     0.0000    28.0000 </r>
       <r>    10.7878     0.0000    28.0000 </r>
       <r>    10.9538     0.0000    28.0000 </r>
       <r>    11.1198     0.0000    28.0000 </r>
       <r>    11.2858     0.0388    28.0064 </r>
       <r>    11.4518     0.0000    30.0000 </r>
       <r>    11.6178     0.0000    30.0000 </r>
       <r>    11.7838     2.7476    30.4561 </r>
       <r>    11.9498     0.0000    32.0000 </r>
       <r>    12.1158     0.0000    32.0000 </r>
       <r>    12.2817    24.0978    38.0000 </r>
       <r>    12.4477     0.0000    38.0000 </r>
       <r>    12.6137     0.0000    38.0000 </r>
       <r>    12.7797     0.0000    38.0000 </r>
       <r>    12.9457     0.0000    38.0000 </r>
       <r>    13.1117     0.0000    40.0000 </r>
       <r>    13.2777     0.0000    40.0000 </r>
       <r>    13.4437     0.0000    40.0000 </r>
       <r>    13.6097     0.0000    40.0000 </r>
       <r>    13.7757     0.0000    44.0000 </r>
       <r>    13.9416     0.0000    44.0000 </r>
       <r>    14.1076     0.0000    44.0000 </r>
       <r>    14.2736     0.0000    44.0000 </r>
       <r>    14.4396    12.0489    46.0000 </r>
       <r>    14.6056     0.0000    46.0000 </r>
       <r>    14.7716     0.0000    46.0000 </r>
       <r>    14.9376     0.0000    46.0000 </r>
       <r>    15.1036     0.0000    46.0000 </r>
       <r>    15.2696     0.0000    46.0000 </r>
       <r>    15.4356     0.0000    46.0000 </r>
       <r>    15.6016     0.0000    46.0000 </r>
       <r>    15.7675    24.0559    49.9931 </r>
       <r>    15.9335     0.0000    50.0000 </r>
       <r>    16.0995     0.0000    50.0000 </r>
       <r>    16.2655     0.0000    50.0000 </r>
       <r>    16.4315     0.0000    50.0000 </r>
       <r>    16.5975     0.0000    50.0000 </r>
       <r>    16.7635     0.0000    50.0000 </r>
       <r>    16.9295     0.0000    50.0000 </r>
       <r>    17.0955     0.0000    52.0000 </r>
       <r>    17.2615     0.0000    52.0000 </r>
       <r>    17.4274     0.0000    52.0000 </r>
       <r>    17.5934     0.0000    52.0000 </r>
       <r>    17.7594     0.0000    52.0000 </r>
       <r>    17.9254     0.0000    52.0000 </r>
       <r>    18.0914     0.0000    54.0000 </r>
       <r>    18.2574     0.0000    54.0000 </r>
       <r>    18.4234     0.0000    54.0000 </r>
       <r>    18.5894     0.0000    54.0000 </r>
       <r>    18.7554     0.0000    56.0000 </r>
       <r>    18.9214     0.0000    56.0000 </r>
       <r>    19.0873     0.0000    56.0000 </r>
       <r>    19.2533     0.0000    56.0000 </r>
       <r>    19.4193     0.0000    56.0000 </r>
       <r>    19.5853     0.0000    56.0000 </r>
       <r>    19.7513     0.0000    56.0000 </r>
       <r>    19.9173     0.0000    56.0000 </r>
       <r>    20.0833     0.0000    56.0000 </r>
       <r>    20.2493     0.0000    56.0000 </r>
       <r>    20.4153     0.0000    56.0000 </r>
       <r>    20.5813     0.0000    56.0000 </r>
       <r>    20.7472     0.0000    56.0000 </r>
       <r>    20.9132     0.0000    56.0000 </r>
      </set>
     </set>
    </array>
   </total>
  </dos>
 </calculation>
 <structure name="finalpos" >
  <crystal>
   <varray name="basis" >
    <v>       4.44847177       0.00000000       0.00000000 </v>
    <v>       0.00000000       4.44847177       0.00000000 </v>
    <v>       0.00000000       0.00000000       4.96767487 </v>
   </varray>
   <i name="volume">     98.30482692 </i>
   <varray name="rec_basis" >
    <v>       0.22479630       0.00000000       0.00000000 </v>
    <v>       0.00000000       0.22479630       0.00000000 </v>
    <v>       0.00000000       0.00000000       0.20130142 </v>
   </varray>
  </crystal>
  <varray name="positions" >
   <v>       0.50000000       0.50000000       0.11240375 </v>
   <v>       0.50000000       0.50000000       0.88759625 </v>
  </varray>
 </structure>
</modeling>
