 running on   24 total cores
 distrk:  each k-point on   24 cores,    1 groups
 distr:  one band on    1 cores,   24 groups
 using from now: INCAR     
 vasp.5.4.4.18Apr17-6-g9f103f2a35 (build Oct 18 2021 20:38:43) complex          
  
 POSCAR found type information on POSCAR  Ta W  Zr N  C  Cr Mo
 POSCAR found :  7 types and      64 ions
 scaLAPACK will be used

 ----------------------------------------------------------------------------- 
|                                                                             |
|           W    W    AA    RRRRR   N    N  II  N    N   GGGG   !!!           |
|           W    W   A  A   R    R  NN   N  II  NN   N  G    G  !!!           |
|           W    W  A    A  R    R  N N  N  II  N N  N  G       !!!           |
|           W WW W  AAAAAA  RRRRR   N  N N  II  N  N N  G  GGG   !            |
|           WW  WW  A    A  R   R   N   NN  II  N   NN  G    G                |
|           W    W  A    A  R    R  N    N  II  N    N   GGGG   !!!           |
|                                                                             |
|      For optimal performance we recommend to set                            |
|        NCORE= 4 - approx SQRT( number of cores)                             |
|      NCORE specifies how many cores store one orbital (NPAR=cpu/NCORE).     |
|      This setting can  greatly improve the performance of VASP for DFT.     |
|      The default,   NCORE=1            might be grossly inefficient         |
|      on modern multi-core architectures or massively parallel machines.     |
|      Do your own testing !!!!                                               |
|      Unfortunately you need to use the default for GW and RPA calculations. |
|      (for HF NCORE is supported but not extensively tested yet)             |
|                                                                             |
 ----------------------------------------------------------------------------- 


 ----------------------------------------------------------------------------- 
|                                                                             |
|  ADVICE TO THIS USER RUNNING 'VASP/VAMP'   (HEAR YOUR MASTER'S VOICE ...):  |
|                                                                             |
|      You have a (more or less) 'large supercell' and for larger cells       |
|      it might be more efficient to use real space projection operators      |
|      So try LREAL= Auto  in the INCAR   file.                               |
|      Mind: If you want to do a very accurate calculations keep the          |
|      reciprocal projection scheme          (i.e. LREAL=.FALSE.)             |
|                                                                             |
 ----------------------------------------------------------------------------- 

 LDA part: xc-table for Pade appr. of Perdew
 POSCAR, INCAR and KPOINTS ok, starting setup
 FFT: planning ...
 WAVECAR not read
 entering main loop
       N       E                     dE             d eps       ncg     rms          rms(c)
DAV:   1     0.511807317182E+04    0.51181E+04   -0.19779E+05  8760   0.141E+03
DAV:   2     0.401145326446E+01   -0.51141E+04   -0.48754E+04  9072   0.486E+02
DAV:   3    -0.713814139337E+03   -0.71783E+03   -0.66894E+03 13224   0.167E+02
DAV:   4    -0.779183071152E+03   -0.65369E+02   -0.63725E+02 16008   0.556E+01
DAV:   5    -0.782706542474E+03   -0.35235E+01   -0.34795E+01 15912   0.111E+01    0.732E+01
RMM:   6    -0.985552257107E+03   -0.20285E+03   -0.23538E+03 11841   0.132E+02    0.129E+02
RMM:   7    -0.660676232210E+03    0.32488E+03   -0.24005E+02 12752   0.331E+01    0.402E+01
RMM:   8    -0.658394722487E+03    0.22815E+01   -0.37640E+01 13919   0.116E+01    0.366E+01
RMM:   9    -0.654573393018E+03    0.38213E+01   -0.94837E+00 12967   0.771E+00    0.377E+01
RMM:  10    -0.647198616165E+03    0.73748E+01   -0.44110E+00 13559   0.501E+00    0.105E+01
RMM:  11    -0.649674339582E+03   -0.24757E+01   -0.24101E+00 13091   0.356E+00    0.246E+01
RMM:  12    -0.646975973374E+03    0.26984E+01   -0.24006E+00 12576   0.435E+00    0.127E+01
RMM:  13    -0.647184911461E+03   -0.20894E+00   -0.15409E+00 13682   0.257E+00    0.151E+01
RMM:  14    -0.646581880508E+03    0.60303E+00   -0.17049E+00 13575   0.231E+00    0.741E+00
RMM:  15    -0.646886304066E+03   -0.30442E+00   -0.45531E-01 13070   0.150E+00    0.119E+01
RMM:  16    -0.646302173312E+03    0.58413E+00   -0.29124E-01 13598   0.120E+00    0.232E+00
RMM:  17    -0.646272289213E+03    0.29884E-01   -0.33294E-01 14012   0.637E-01    0.209E+00
RMM:  18    -0.646319118971E+03   -0.46830E-01   -0.10893E-01 13852   0.540E-01    0.394E+00
RMM:  19    -0.646267865660E+03    0.51253E-01   -0.54527E-02 13800   0.447E-01    0.810E-01
RMM:  20    -0.646264254301E+03    0.36114E-02   -0.31201E-02 13786   0.235E-01    0.470E-01
RMM:  21    -0.646264046685E+03    0.20762E-03   -0.17033E-02 13708   0.170E-01    0.440E-01
RMM:  22    -0.646263255545E+03    0.79114E-03   -0.53388E-03 13663   0.887E-02    0.112E-01
RMM:  23    -0.646263229939E+03    0.25605E-04   -0.18473E-03 12936   0.510E-02    0.536E-02
RMM:  24    -0.646263241185E+03   -0.11246E-04   -0.77080E-04 11526   0.295E-02    0.239E-02
WARNING in EDDRMM: call to ZHEGV failed, returncode =   6  3      5
WARNING in EDDRMM: call to ZHEGV failed, returncode =   6  3      5
RMM:  25    -0.646263253098E+03   -0.11913E-04   -0.34232E-04  9366   0.195E-02    0.230E-02
RMM:  26    -0.646263257657E+03   -0.45587E-05   -0.16353E-04  7772   0.167E-02    0.997E-03
RMM:  27    -0.646263262939E+03   -0.52825E-05   -0.76328E-05  7146   0.129E-02
   1 F= -.64626326E+03 E0= -.64614272E+03  d E =-.646263E+03
 curvature:   0.00 expect dE= 0.000E+00 dE for cont linesearch  0.000E+00
 trial: gam= 0.00000 g(F)=  0.421E+01 g(S)=  0.643E+01 ort = 0.000E+00 (trialstep = 0.100E+01)
 search vector abs. value=  0.106E+02
 bond charge predicted
       N       E                     dE             d eps       ncg     rms          rms(c)
DAV:   1    -0.688719340240E+03   -0.42456E+02   -0.17170E+03 12432   0.188E+02    0.553E+01
RMM:   2    -0.893028332368E+03   -0.20431E+03   -0.10393E+03 10165   0.117E+02    0.109E+02
RMM:   3    -0.651874218002E+03    0.24115E+03   -0.87336E+01 11722   0.313E+01    0.225E+01
RMM:   4    -0.655836663185E+03   -0.39624E+01   -0.26781E+01 12488   0.145E+01    0.358E+01
RMM:   5    -0.649662900618E+03    0.61738E+01   -0.11252E+01 11417   0.109E+01    0.219E+01
RMM:   6    -0.646919141845E+03    0.27438E+01   -0.12130E+01 12213   0.601E+00    0.129E+01
RMM:   7    -0.648723441468E+03   -0.18043E+01   -0.23455E+00 11197   0.528E+00    0.235E+01
RMM:   8    -0.645714932538E+03    0.30085E+01   -0.11462E+00 11842   0.388E+00    0.436E+00
RMM:   9    -0.645803245099E+03   -0.88313E-01   -0.42409E-01 14137   0.141E+00    0.695E+00
RMM:  10    -0.645623783227E+03    0.17946E+00   -0.18111E-01 13691   0.106E+00    0.250E+00
RMM:  11    -0.645685642469E+03   -0.61859E-01   -0.12525E-01 14113   0.774E-01    0.403E+00
RMM:  12    -0.645630987440E+03    0.54655E-01   -0.79489E-02 13835   0.650E-01    0.114E+00
RMM:  13    -0.645676143356E+03   -0.45156E-01   -0.77679E-02 14124   0.567E-01    0.284E+00
RMM:  14    -0.645649260104E+03    0.26883E-01   -0.46866E-02 13657   0.477E-01    0.814E-01
RMM:  15    -0.645652186256E+03   -0.29262E-02   -0.39286E-02 14514   0.257E-01    0.329E-01
RMM:  16    -0.645653799988E+03   -0.16137E-02   -0.17429E-02 14554   0.156E-01    0.252E-01
RMM:  17    -0.645654152220E+03   -0.35223E-03   -0.64600E-03 14198   0.103E-01    0.216E-01
RMM:  18    -0.645654096498E+03    0.55722E-04   -0.29166E-03 13757   0.690E-02    0.632E-02
RMM:  19    -0.645654137862E+03   -0.41364E-04   -0.11274E-03 12818   0.437E-02    0.409E-02
RMM:  20    -0.645654154837E+03   -0.16975E-04   -0.45839E-04 12292   0.302E-02    0.200E-02
RMM:  21    -0.645654166524E+03   -0.11687E-04   -0.19332E-04 11346   0.229E-02    0.135E-02
WARNING in EDDRMM: call to ZHEGV failed, returncode =   6  3      5
RMM:  22    -0.645654170496E+03   -0.39723E-05   -0.72676E-05  9526   0.187E-02
   2 F= -.64565417E+03 E0= -.64556421E+03  d E =0.609092E+00
 trial-energy change:    0.609092  1 .order    1.322328  -10.639725   13.284381
 step:   0.4894(harm=  0.4447)  dis= 0.04608  next Energy=  -648.950564 (dE=-0.269E+01)
 bond charge predicted
       N       E                     dE             d eps       ncg     rms          rms(c)
DAV:   1    -0.664791936469E+03   -0.19138E+02   -0.47898E+02 12432   0.934E+01    0.477E+01
RMM:   2    -0.860403324060E+03   -0.19561E+03   -0.15573E+02 12890   0.250E+01    0.760E+01
RMM:   3    -0.675713351041E+03    0.18469E+03   -0.59526E+01 12068   0.234E+01    0.466E+01
RMM:   4    -0.651221941799E+03    0.24491E+02   -0.21246E+01 11617   0.139E+01    0.142E+01
RMM:   5    -0.656075548449E+03   -0.48536E+01   -0.13892E+01 11213   0.109E+01    0.336E+01
RMM:   6    -0.653498497400E+03    0.25771E+01   -0.55257E+00 11971   0.562E+00    0.269E+01
RMM:   7    -0.650753820422E+03    0.27447E+01   -0.19920E+00 10972   0.441E+00    0.192E+01
RMM:   8    -0.651069134337E+03   -0.31531E+00   -0.23059E+00 11793   0.465E+00    0.180E+01
RMM:   9    -0.649527951676E+03    0.15412E+01   -0.72811E-01 13077   0.249E+00    0.937E+00
RMM:  10    -0.649095932304E+03    0.43202E+00   -0.27625E-01 13013   0.140E+00    0.524E+00
RMM:  11    -0.649008758205E+03    0.87174E-01   -0.13386E-01 12993   0.909E-01    0.377E+00
RMM:  12    -0.648999451066E+03    0.93071E-02   -0.70344E-02 13810   0.549E-01    0.332E+00
RMM:  13    -0.648972128880E+03    0.27322E-01   -0.43304E-02 13771   0.459E-01    0.229E+00
RMM:  14    -0.648974007088E+03   -0.18782E-02   -0.34667E-02 13151   0.455E-01    0.245E+00
RMM:  15    -0.648949071897E+03    0.24935E-01   -0.29642E-02 13144   0.409E-01    0.689E-01
RMM:  16    -0.648959601623E+03   -0.10530E-01   -0.34299E-02 13768   0.386E-01    0.138E+00
RMM:  17    -0.648950995230E+03    0.86064E-02   -0.11490E-02 12778   0.290E-01    0.330E-01
RMM:  18    -0.648952077093E+03   -0.10819E-02   -0.91650E-03 13684   0.117E-01    0.360E-01
RMM:  19    -0.648952438444E+03   -0.36135E-03   -0.30809E-03 12882   0.600E-02    0.389E-01
RMM:  20    -0.648951900096E+03    0.53835E-03   -0.11582E-03 13109   0.737E-02    0.160E-01
RMM:  21    -0.648951818962E+03    0.81133E-04   -0.82760E-04 12429   0.529E-02    0.235E-02
RMM:  22    -0.648951861409E+03   -0.42447E-04   -0.39459E-04 11321   0.246E-02    0.540E-02
RMM:  23    -0.648951855951E+03    0.54577E-05   -0.13580E-04 10956   0.236E-02    0.155E-02
RMM:  24    -0.648951859303E+03   -0.33516E-05   -0.49186E-05  9000   0.131E-02
   3 F= -.64895186E+03 E0= -.64884670E+03  d E =-.268860E+01
 curvature:  -0.22 expect dE=-0.848E+00 dE for cont linesearch -0.257E-02
 trial: gam= 0.32754 g(F)=  0.261E+01 g(S)=  0.123E+01 ort = 0.352E+00 (trialstep = 0.898E+00)
 search vector abs. value=  0.521E+01
 bond charge predicted
       N       E                     dE             d eps       ncg     rms          rms(c)
DAV:   1    -0.644225147501E+03    0.47267E+01   -0.64950E+02  9096   0.103E+02    0.123E+01
RMM:   2    -0.676795485276E+03   -0.32570E+02   -0.85591E+01 13622   0.225E+01    0.432E+01
RMM:   3    -0.652834094024E+03    0.23961E+02   -0.11188E+01 10706   0.139E+01    0.175E+01
RMM:   4    -0.651099818093E+03    0.17343E+01   -0.39612E+00 13051   0.416E+00    0.593E+00
RMM:   5    -0.651308397380E+03   -0.20858E+00   -0.11640E+00 12759   0.221E+00    0.101E+01
RMM:   6    -0.650825511546E+03    0.48289E+00   -0.38518E-01 11826   0.171E+00    0.371E+00
RMM:   7    -0.650953171975E+03   -0.12766E+00   -0.31649E-01 12981   0.120E+00    0.687E+00
RMM:   8    -0.650777094975E+03    0.17608E+00   -0.19083E-01 12628   0.105E+00    0.291E+00
RMM:   9    -0.650765509732E+03    0.11585E-01   -0.18958E-01 13512   0.850E-01    0.301E+00
RMM:  10    -0.650730222017E+03    0.35288E-01   -0.54293E-02 12405   0.626E-01    0.151E+00
RMM:  11    -0.650731123955E+03   -0.90194E-03   -0.42141E-02 14098   0.366E-01    0.174E+00
RMM:  12    -0.650722121058E+03    0.90029E-02   -0.16652E-02 13267   0.248E-01    0.686E-01
RMM:  13    -0.650721053854E+03    0.10672E-02   -0.10826E-02 14172   0.138E-01    0.263E-01
RMM:  14    -0.650721149714E+03   -0.95861E-04   -0.45666E-03 13879   0.775E-02    0.203E-01
RMM:  15    -0.650721263853E+03   -0.11414E-03   -0.18212E-03 13293   0.717E-02    0.144E-01
RMM:  16    -0.650721309555E+03   -0.45702E-04   -0.10343E-03 13005   0.428E-02    0.599E-02
RMM:  17    -0.650721289777E+03    0.19778E-04   -0.46521E-04 11827   0.286E-02    0.267E-02
RMM:  18    -0.650721296187E+03   -0.64097E-05   -0.19527E-04 10878   0.191E-02    0.146E-02
WARNING in EDDRMM: call to ZHEGV failed, returncode =   6  3      9
RMM:  19    -0.650721299564E+03   -0.33772E-05   -0.64078E-05  8416   0.155E-02
   4 F= -.65072130E+03 E0= -.65062745E+03  d E =-.176944E+01
 trial-energy change:   -1.769440  1 .order   -1.797498   -3.548417   -0.046580
 step:   0.9104(harm=  0.9098)  dis= 0.08983  next Energy=  -650.721625 (dE=-0.177E+01)
 bond charge predicted
       N       E                     dE             d eps       ncg     rms          rms(c)
DAV:   1    -0.650720344281E+03    0.95191E-03   -0.12595E-01 11088   0.147E+00    0.172E-01
RMM:   2    -0.650729950931E+03   -0.96066E-02   -0.20305E-02 13231   0.356E-01    0.125E+00
RMM:   3    -0.650722381749E+03    0.75692E-02   -0.28870E-03 10479   0.186E-01    0.381E-01
RMM:   4    -0.650721762918E+03    0.61883E-03   -0.90341E-04 10329   0.774E-02    0.133E-01
RMM:   5    -0.650721803234E+03   -0.40316E-04   -0.29576E-04  9808   0.373E-02    0.187E-01
RMM:   6    -0.650721663327E+03    0.13991E-03   -0.81625E-05  7191   0.287E-02    0.418E-02
RMM:   7    -0.650721664734E+03   -0.14069E-05   -0.71407E-05  7426   0.201E-02
   5 F= -.65072166E+03 E0= -.65062794E+03  d E =-.176981E+01
 curvature:  -0.60 expect dE=-0.578E+00 dE for cont linesearch -0.512E-05
 trial: gam= 0.17254 g(F)=  0.894E+00 g(S)=  0.716E-01 ort = 0.668E-02 (trialstep = 0.900E+00)
 search vector abs. value=  0.112E+01
 bond charge predicted
       N       E                     dE             d eps       ncg     rms          rms(c)
DAV:   1    -0.648906961856E+03    0.18147E+01   -0.18106E+02 11616   0.752E+01    0.880E+00
RMM:   2    -0.664613512834E+03   -0.15707E+02   -0.36051E+01 13361   0.142E+01    0.370E+01
RMM:   3    -0.651444374442E+03    0.13169E+02   -0.54182E+00 11234   0.786E+00    0.421E+00
RMM:   4    -0.651895126151E+03   -0.45075E+00   -0.16669E+00 13260   0.252E+00    0.107E+01
RMM:   5    -0.651346419908E+03    0.54871E+00   -0.29769E-01 11520   0.155E+00    0.262E+00
RMM:   6    -0.651400036481E+03   -0.53617E-01   -0.20089E-01 12611   0.101E+00    0.470E+00
RMM:   7    -0.651318565442E+03    0.81471E-01   -0.97985E-02 12838   0.800E-01    0.185E+00
RMM:   8    -0.651333603465E+03   -0.15038E-01   -0.58699E-02 12151   0.679E-01    0.276E+00
RMM:   9    -0.651294324340E+03    0.39279E-01   -0.39470E-02 13251   0.470E-01    0.460E-01
RMM:  10    -0.651294467056E+03   -0.14272E-03   -0.21560E-02 14034   0.190E-01    0.543E-01
RMM:  11    -0.651294727139E+03   -0.26008E-03   -0.70955E-03 13511   0.148E-01    0.520E-01
RMM:  12    -0.651294048411E+03    0.67873E-03   -0.36377E-03 13540   0.988E-02    0.187E-01
RMM:  13    -0.651294541933E+03   -0.49352E-03   -0.18550E-03 13065   0.794E-02    0.350E-01
RMM:  14    -0.651294169174E+03    0.37276E-03   -0.10139E-03 12731   0.642E-02    0.117E-01
RMM:  15    -0.651294247674E+03   -0.78500E-04   -0.74046E-04 12841   0.396E-02    0.589E-02
RMM:  16    -0.651294284526E+03   -0.36852E-04   -0.43067E-04 12253   0.301E-02    0.260E-02
RMM:  17    -0.651294284270E+03    0.25552E-06   -0.19187E-04 11066   0.220E-02    0.166E-02
WARNING in EDDRMM: call to ZHEGV failed, returncode =   8  4     10
RMM:  18    -0.651294287213E+03   -0.29424E-05   -0.78981E-05  9135   0.188E-02
   6 F= -.65129429E+03 E0= -.65120569E+03  d E =-.572622E+00
 trial-energy change:   -0.572622  1 .order   -0.569864   -0.870829   -0.268900
 step:   1.2874(harm=  1.3026)  dis= 0.07036  next Energy=  -651.352297 (dE=-0.631E+00)
 bond charge predicted
       N       E                     dE             d eps       ncg     rms          rms(c)
DAV:   1    -0.650905546168E+03    0.38874E+00   -0.33047E+01 11568   0.328E+01    0.371E+00
RMM:   2    -0.654036165065E+03   -0.31306E+01   -0.71869E+00 12746   0.660E+00    0.196E+01
RMM:   3    -0.651481441437E+03    0.25547E+01   -0.10997E+00 11157   0.353E+00    0.477E+00
RMM:   4    -0.651404415204E+03    0.77026E-01   -0.30833E-01 12991   0.121E+00    0.270E+00
RMM:   5    -0.651389874776E+03    0.14540E-01   -0.81729E-02 12595   0.605E-01    0.270E+00
RMM:   6    -0.651363086060E+03    0.26789E-01   -0.23334E-02 11347   0.453E-01    0.121E+00
RMM:   7    -0.651368354209E+03   -0.52681E-02   -0.26503E-02 13069   0.353E-01    0.167E+00
RMM:   8    -0.651358173186E+03    0.10181E-01   -0.12602E-02 11690   0.337E-01    0.857E-01
RMM:   9    -0.651357448221E+03    0.72496E-03   -0.99556E-03 13505   0.228E-01    0.928E-01
RMM:  10    -0.651353840522E+03    0.36077E-02   -0.34572E-03 11875   0.165E-01    0.300E-01
RMM:  11    -0.651354213517E+03   -0.37300E-03   -0.31147E-03 12928   0.104E-01    0.380E-01
RMM:  12    -0.651353604247E+03    0.60927E-03   -0.11584E-03 12187   0.688E-02    0.107E-01
RMM:  13    -0.651353641005E+03   -0.36759E-04   -0.74798E-04 12371   0.361E-02    0.635E-02
RMM:  14    -0.651353663892E+03   -0.22887E-04   -0.33566E-04 11867   0.251E-02    0.385E-02
RMM:  15    -0.651353682340E+03   -0.18448E-04   -0.17764E-04 11934   0.214E-02    0.205E-02
RMM:  16    -0.651353682822E+03   -0.48157E-06   -0.79330E-05  9663   0.167E-02
   7 F= -.65135368E+03 E0= -.65126654E+03  d E =-.632018E+00
 curvature:  -0.76 expect dE=-0.707E+00 dE for cont linesearch -0.223E-04
 trial: gam= 0.93090 g(F)=  0.388E+00 g(S)=  0.547E+00 ort = 0.575E-02 (trialstep = 0.572E+00)
 search vector abs. value=  0.192E+01
 bond charge predicted
       N       E                     dE             d eps       ncg     rms          rms(c)
DAV:   1    -0.650172335812E+03    0.11813E+01   -0.13155E+02 12432   0.682E+01    0.813E+00
RMM:   2    -0.663873682260E+03   -0.13701E+02   -0.32808E+01 11330   0.172E+01    0.385E+01
RMM:   3    -0.651816752767E+03    0.12057E+02   -0.59531E+00 10936   0.913E+00    0.610E+00
RMM:   4    -0.651854813098E+03   -0.38060E-01   -0.15805E+00 13605   0.286E+00    0.542E+00
RMM:   5    -0.651708069032E+03    0.14674E+00   -0.30811E-01 12519   0.136E+00    0.272E+00
RMM:   6    -0.651705300014E+03    0.27690E-02   -0.11691E-01 11746   0.958E-01    0.325E+00
RMM:   7    -0.651653353227E+03    0.51947E-01   -0.10816E-01 12657   0.783E-01    0.170E+00
RMM:   8    -0.651699902504E+03   -0.46549E-01   -0.63883E-02 11683   0.764E-01    0.370E+00
RMM:   9    -0.651637531565E+03    0.62371E-01   -0.43444E-02 12434   0.617E-01    0.994E-01
RMM:  10    -0.651637582319E+03   -0.50754E-04   -0.25620E-02 13995   0.279E-01    0.944E-01
RMM:  11    -0.651634647236E+03    0.29351E-02   -0.97130E-03 13923   0.160E-01    0.312E-01
WARNING in EDDRMM: call to ZHEGV failed, returncode =   6  3      6
RMM:  12    -0.651635317621E+03   -0.67039E-03   -0.43365E-03 13435   0.115E-01    0.413E-01
RMM:  13    -0.651634819846E+03    0.49778E-03   -0.22154E-03 13443   0.819E-02    0.149E-01
RMM:  14    -0.651635155599E+03   -0.33575E-03   -0.14380E-03 13280   0.489E-02    0.876E-02
RMM:  15    -0.651635353057E+03   -0.19746E-03   -0.87699E-04 12946   0.430E-02    0.434E-02
RMM:  16    -0.651635361110E+03   -0.80530E-05   -0.42917E-04 12134   0.278E-02    0.276E-02
RMM:  17    -0.651635368228E+03   -0.71176E-05   -0.14976E-04 10533   0.206E-02    0.150E-02
RMM:  18    -0.651635372307E+03   -0.40792E-05   -0.76367E-05  9547   0.183E-02
   8 F= -.65163537E+03 E0= -.65155472E+03  d E =-.281689E+00
 trial-energy change:   -0.281689  1 .order   -0.271640   -0.538326   -0.004953
 step:   0.5770(harm=  0.5775)  dis= 0.04263  next Energy=  -651.635393 (dE=-0.282E+00)
 bond charge predicted
       N       E                     dE             d eps       ncg     rms          rms(c)
DAV:   1    -0.651635272112E+03    0.96116E-04   -0.91453E-03 12792   0.579E-01    0.694E-02
RMM:   2    -0.651636385388E+03   -0.11133E-02   -0.23177E-03 11391   0.126E-01    0.393E-01
RMM:   3    -0.651635473822E+03    0.91157E-03   -0.37363E-04  8784   0.710E-02    0.123E-01
RMM:   4    -0.651635408529E+03    0.65293E-04   -0.99622E-05  7503   0.340E-02    0.427E-02
RMM:   5    -0.651635416575E+03   -0.80464E-05   -0.33237E-05  6084   0.195E-02
   9 F= -.65163542E+03 E0= -.65155478E+03  d E =-.281734E+00
 curvature:  -0.58 expect dE=-0.298E+00 dE for cont linesearch -0.543E-05
 trial: gam= 0.43177 g(F)=  0.431E+00 g(S)=  0.811E-01 ort = 0.423E-02 (trialstep = 0.573E+00)
 search vector abs. value=  0.873E+00
 bond charge predicted
       N       E                     dE             d eps       ncg     rms          rms(c)
DAV:   1    -0.650770064449E+03    0.86534E+00   -0.54469E+01  9072   0.401E+01    0.183E+00
RMM:   2    -0.652040640913E+03   -0.12706E+01   -0.11623E+01 13642   0.772E+00    0.598E+00
RMM:   3    -0.651907900766E+03    0.13274E+00   -0.55651E-01 12383   0.228E+00    0.281E+00
RMM:   4    -0.651923418416E+03   -0.15518E-01   -0.14685E-01 12909   0.888E-01    0.321E+00
RMM:   5    -0.651874159301E+03    0.49259E-01   -0.45838E-02 12102   0.548E-01    0.101E+00
RMM:   6    -0.651874788360E+03   -0.62906E-03   -0.30704E-02 12938   0.312E-01    0.113E+00
RMM:   7    -0.651870536386E+03    0.42520E-02   -0.14930E-02 12795   0.263E-01    0.871E-01
RMM:   8    -0.651871542229E+03   -0.10058E-02   -0.11046E-02 11576   0.289E-01    0.107E+00
RMM:   9    -0.651864441642E+03    0.71006E-02   -0.78304E-03 11851   0.234E-01    0.206E-01
RMM:  10    -0.651866054292E+03   -0.16127E-02   -0.44223E-03 12513   0.121E-01    0.584E-01
RMM:  11    -0.651864467944E+03    0.15863E-02   -0.15320E-03 11228   0.908E-02    0.905E-02
RMM:  12    -0.651864462779E+03    0.51646E-05   -0.10468E-03 12126   0.385E-02    0.546E-02
RMM:  13    -0.651864516878E+03   -0.54099E-04   -0.29420E-04  9571   0.353E-02    0.105E-01
RMM:  14    -0.651864465992E+03    0.50886E-04   -0.15645E-04  9067   0.267E-02    0.248E-02
RMM:  15    -0.651864469556E+03   -0.35639E-05   -0.10117E-04  8643   0.171E-02    0.118E-02
RMM:  16    -0.651864470273E+03   -0.71696E-06   -0.29954E-05  6305   0.142E-02
  10 F= -.65186447E+03 E0= -.65178747E+03  d E =-.229054E+00
 trial-energy change:   -0.229054  1 .order   -0.227168   -0.294479   -0.159857
 step:   1.1552(harm=  1.2538)  dis= 0.05881  next Energy=  -651.947606 (dE=-0.312E+00)
 bond charge predicted
       N       E                     dE             d eps       ncg     rms          rms(c)
DAV:   1    -0.650826465078E+03    0.10380E+01   -0.56276E+01  9072   0.406E+01    0.183E+00
RMM:   2    -0.652076145856E+03   -0.12497E+01   -0.11893E+01 13634   0.783E+00    0.510E+00
RMM:   3    -0.651999621983E+03    0.76524E-01   -0.57728E-01 12544   0.232E+00    0.296E+00
RMM:   4    -0.652004576550E+03   -0.49546E-02   -0.15063E-01 12928   0.900E-01    0.295E+00
RMM:   5    -0.651962116564E+03    0.42460E-01   -0.46503E-02 12187   0.539E-01    0.951E-01
RMM:   6    -0.651963454272E+03   -0.13377E-02   -0.30955E-02 12963   0.317E-01    0.114E+00
RMM:   7    -0.651958776189E+03    0.46781E-02   -0.14539E-02 12752   0.271E-01    0.852E-01
RMM:   8    -0.651960048260E+03   -0.12721E-02   -0.11592E-02 11845   0.288E-01    0.110E+00
RMM:   9    -0.651952857132E+03    0.71911E-02   -0.70405E-03 11754   0.226E-01    0.170E-01
RMM:  10    -0.651953594364E+03   -0.73723E-03   -0.44508E-03 13041   0.102E-01    0.358E-01
RMM:  11    -0.651953053375E+03    0.54099E-03   -0.13945E-03 11550   0.749E-02    0.132E-01
RMM:  12    -0.651953053352E+03    0.23196E-07   -0.71330E-04 11867   0.453E-02    0.129E-01
RMM:  13    -0.651952998105E+03    0.55247E-04   -0.33163E-04  9984   0.354E-02    0.624E-02
RMM:  14    -0.651952988341E+03    0.97645E-05   -0.18513E-04 10248   0.223E-02    0.228E-02
RMM:  15    -0.651952991239E+03   -0.28982E-05   -0.92181E-05  8335   0.177E-02
  11 F= -.65195299E+03 E0= -.65187911E+03  d E =-.317575E+00
 curvature:  -1.04 expect dE=-0.263E+00 dE for cont linesearch -0.431E-03
 trial: gam= 0.33052 g(F)=  0.223E+00 g(S)=  0.290E-01 ort = 0.190E-01 (trialstep = 0.690E+00)
 search vector abs. value=  0.360E+00
 bond charge predicted
       N       E                     dE             d eps       ncg     rms          rms(c)
DAV:   1    -0.651788137218E+03    0.16485E+00   -0.29531E+01 11088   0.254E+01    0.356E+00
RMM:   2    -0.654132678791E+03   -0.23445E+01   -0.54927E+00 12831   0.624E+00    0.165E+01
RMM:   3    -0.652156180115E+03    0.19765E+01   -0.95689E-01 11213   0.341E+00    0.381E+00
RMM:   4    -0.652115380949E+03    0.40799E-01   -0.26229E-01 13374   0.109E+00    0.266E+00
RMM:   5    -0.652092162095E+03    0.23219E-01   -0.68823E-02 12415   0.608E-01    0.207E+00
RMM:   6    -0.652075699372E+03    0.16463E-01   -0.25034E-02 11412   0.473E-01    0.115E+00
RMM:   7    -0.652068987185E+03    0.67122E-02   -0.25254E-02 13896   0.279E-01    0.451E-01
RMM:   8    -0.652071669835E+03   -0.26826E-02   -0.88668E-03 12346   0.263E-01    0.942E-01
RMM:   9    -0.652066636836E+03    0.50330E-02   -0.42112E-03 11864   0.198E-01    0.190E-01
RMM:  10    -0.652066767792E+03   -0.13096E-03   -0.31243E-03 13264   0.758E-02    0.186E-01
RMM:  11    -0.652066800053E+03   -0.32260E-04   -0.97606E-04 12325   0.585E-02    0.181E-01
RMM:  12    -0.652066708865E+03    0.91188E-04   -0.53496E-04 12375   0.401E-02    0.636E-02
RMM:  13    -0.652066750719E+03   -0.41854E-04   -0.29516E-04 12211   0.277E-02    0.739E-02
WARNING in EDDRMM: call to ZHEGV failed, returncode =   6  3      6
RMM:  14    -0.652066761928E+03   -0.11209E-04   -0.13986E-04 10795   0.269E-02    0.678E-02
RMM:  15    -0.652066760197E+03    0.17312E-05   -0.12360E-04 11298   0.233E-02    0.210E-02
RMM:  16    -0.652066757953E+03    0.22437E-05   -0.71251E-05  9166   0.156E-02
  12 F= -.65206676E+03 E0= -.65199376E+03  d E =-.113767E+00
 trial-energy change:   -0.113767  1 .order   -0.114050   -0.178263   -0.049837
 step:   0.9572(harm=  0.9572)  dis= 0.02071  next Energy=  -652.076711 (dE=-0.124E+00)
 bond charge predicted
       N       E                     dE             d eps       ncg     rms          rms(c)
DAV:   1    -0.652033088176E+03    0.33672E-01   -0.44197E+00 11208   0.987E+00    0.136E+00
RMM:   2    -0.652390801365E+03   -0.35771E+00   -0.86525E-01 12712   0.252E+00    0.671E+00
RMM:   3    -0.652096867836E+03    0.29393E+00   -0.14489E-01 11169   0.132E+00    0.192E+00
RMM:   4    -0.652082957932E+03    0.13910E-01   -0.40454E-02 12915   0.459E-01    0.909E-01
RMM:   5    -0.652081725648E+03    0.12323E-02   -0.12025E-02 12617   0.242E-01    0.935E-01
RMM:   6    -0.652077695332E+03    0.40303E-02   -0.39505E-03 11027   0.192E-01    0.376E-01
RMM:   7    -0.652076897048E+03    0.79828E-03   -0.40087E-03 13741   0.112E-01    0.174E-01
RMM:   8    -0.652077347746E+03   -0.45070E-03   -0.14054E-03 12118   0.109E-01    0.376E-01
RMM:   9    -0.652076547708E+03    0.80004E-03   -0.65647E-04 11013   0.809E-02    0.771E-02
RMM:  10    -0.652076619577E+03   -0.71869E-04   -0.46340E-04 11906   0.382E-02    0.135E-01
RMM:  11    -0.652076550370E+03    0.69207E-04   -0.18473E-04 10786   0.280E-02    0.476E-02
RMM:  12    -0.652076551365E+03   -0.99494E-06   -0.11414E-04  9848   0.180E-02    0.343E-02
RMM:  13    -0.652076554949E+03   -0.35843E-05   -0.35740E-05  6624   0.172E-02
  13 F= -.65207655E+03 E0= -.65200381E+03  d E =-.123564E+00
 curvature:  -0.67 expect dE=-0.133E+00 dE for cont linesearch -0.103E-05
 trial: gam= 0.80679 g(F)=  0.685E-01 g(S)=  0.130E+00 ort = 0.744E-03 (trialstep = 0.616E+00)
 search vector abs. value=  0.434E+00
 bond charge predicted
       N       E                     dE             d eps       ncg     rms          rms(c)
DAV:   1    -0.651922833226E+03    0.15372E+00   -0.28890E+01 11472   0.263E+01    0.423E+00
RMM:   2    -0.655302534958E+03   -0.33797E+01   -0.68874E+00 11469   0.804E+00    0.207E+01
RMM:   3    -0.652248294421E+03    0.30542E+01   -0.13137E+00 11148   0.406E+00    0.427E+00
RMM:   4    -0.652194714987E+03    0.53579E-01   -0.31818E-01 13569   0.132E+00    0.266E+00
RMM:   5    -0.652180947139E+03    0.13768E-01   -0.77630E-02 12584   0.671E-01    0.249E+00
RMM:   6    -0.652152865978E+03    0.28081E-01   -0.30072E-02 11295   0.544E-01    0.113E+00
RMM:   7    -0.652147376223E+03    0.54898E-02   -0.30080E-02 13432   0.349E-01    0.865E-01
RMM:   8    -0.652151835695E+03   -0.44595E-02   -0.11974E-02 11691   0.336E-01    0.133E+00
RMM:   9    -0.652142811347E+03    0.90243E-02   -0.71002E-03 12824   0.246E-01    0.363E-01
RMM:  10    -0.652143181762E+03   -0.37041E-03   -0.39753E-03 12460   0.138E-01    0.437E-01
RMM:  11    -0.652142385294E+03    0.79647E-03   -0.20198E-03 12669   0.894E-02    0.141E-01
RMM:  12    -0.652142508881E+03   -0.12359E-03   -0.89719E-04 12334   0.555E-02    0.177E-01
RMM:  13    -0.652142425651E+03    0.83230E-04   -0.46931E-04 12349   0.398E-02    0.689E-02
RMM:  14    -0.652142499912E+03   -0.74260E-04   -0.32085E-04 12166   0.263E-02    0.393E-02
WARNING in EDDRMM: call to ZHEGV failed, returncode =   6  3      5
RMM:  15    -0.652142546857E+03   -0.46946E-04   -0.19191E-04 11751   0.231E-02    0.200E-02
RMM:  16    -0.652142551707E+03   -0.48495E-05   -0.86185E-05  9873   0.162E-02
  14 F= -.65214255E+03 E0= -.65207178E+03  d E =-.659968E-01
 trial-energy change:   -0.065997  1 .order   -0.065228   -0.122849   -0.007606
 step:   0.6551(harm=  0.6567)  dis= 0.01628  next Energy=  -652.142793 (dE=-0.662E-01)
 bond charge predicted
       N       E                     dE             d eps       ncg     rms          rms(c)
DAV:   1    -0.652141856143E+03    0.69071E-03   -0.11599E-01 12384   0.168E+00    0.273E-01
RMM:   2    -0.652155945713E+03   -0.14090E-01   -0.25989E-02 11551   0.475E-01    0.136E+00
RMM:   3    -0.652143395471E+03    0.12550E-01   -0.54534E-03 10372   0.267E-01    0.348E-01
RMM:   4    -0.652142925585E+03    0.46989E-03   -0.13308E-03 10822   0.981E-02    0.159E-01
RMM:   5    -0.652142922096E+03    0.34897E-05   -0.39633E-04 10578   0.495E-02    0.172E-01
RMM:   6    -0.652142773828E+03    0.14827E-03   -0.12469E-04  7460   0.400E-02    0.583E-02
RMM:   7    -0.652142770461E+03    0.33669E-05   -0.11945E-04  9271   0.246E-02    0.569E-02
RMM:   8    -0.652142771497E+03   -0.10358E-05   -0.40875E-05  6160   0.252E-02
  15 F= -.65214277E+03 E0= -.65207211E+03  d E =-.662165E-01
 curvature:  -0.71 expect dE=-0.675E-01 dE for cont linesearch -0.305E-05
 trial: gam= 0.42898 g(F)=  0.750E-01 g(S)=  0.195E-01 ort = 0.136E-02 (trialstep = 0.624E+00)
 search vector abs. value=  0.176E+00
 bond charge predicted
       N       E                     dE             d eps       ncg     rms          rms(c)
DAV:   1    -0.652016882407E+03    0.12589E+00   -0.11337E+01  9072   0.158E+01    0.821E-01
RMM:   2    -0.652189968477E+03   -0.17309E+00   -0.18387E+00 13611   0.338E+00    0.102E+00
RMM:   3    -0.652200792008E+03   -0.10824E-01   -0.10592E-01 13088   0.931E-01    0.150E+00
RMM:   4    -0.652193464155E+03    0.73279E-02   -0.20583E-02 12912   0.393E-01    0.104E+00
RMM:   5    -0.652188279378E+03    0.51848E-02   -0.81763E-03 12084   0.235E-01    0.427E-01
RMM:   6    -0.652189782597E+03   -0.15032E-02   -0.65813E-03 13070   0.167E-01    0.726E-01
RMM:   7    -0.652187788844E+03    0.19938E-02   -0.31534E-03 12191   0.152E-01    0.388E-01
RMM:   8    -0.652187939139E+03   -0.15030E-03   -0.23267E-03 12220   0.129E-01    0.468E-01
RMM:   9    -0.652186723773E+03    0.12154E-02   -0.12670E-03 11069   0.951E-02    0.885E-02
RMM:  10    -0.652186883723E+03   -0.15995E-03   -0.88018E-04 11007   0.493E-02    0.179E-01
RMM:  11    -0.652186741923E+03    0.14180E-03   -0.32427E-04 10326   0.350E-02    0.339E-02
RMM:  12    -0.652186746375E+03   -0.44519E-05   -0.18725E-04  9751   0.190E-02    0.281E-02
RMM:  13    -0.652186753709E+03   -0.73340E-05   -0.57539E-05  7067   0.159E-02
  16 F= -.65218675E+03 E0= -.65211676E+03  d E =-.439822E-01
 trial-energy change:   -0.043982  1 .order   -0.043637   -0.059310   -0.027964
 step:   1.1214(harm=  1.1804)  dis= 0.02047  next Energy=  -652.198079 (dE=-0.553E-01)
 bond charge predicted
       N       E                     dE             d eps       ncg     rms          rms(c)
DAV:   1    -0.652091376979E+03    0.95369E-01   -0.72160E+00  9072   0.126E+01    0.654E-01
RMM:   2    -0.652201165435E+03   -0.10979E+00   -0.11628E+00 13599   0.270E+00    0.858E-01
RMM:   3    -0.652208258327E+03   -0.70929E-02   -0.69479E-02 13120   0.764E-01    0.123E+00
RMM:   4    -0.652204109832E+03    0.41485E-02   -0.13592E-02 12886   0.320E-01    0.887E-01
RMM:   5    -0.652200238342E+03    0.38715E-02   -0.54265E-03 11742   0.198E-01    0.337E-01
RMM:   6    -0.652201263962E+03   -0.10256E-02   -0.43485E-03 12631   0.137E-01    0.584E-01
RMM:   7    -0.652199970299E+03    0.12937E-02   -0.21007E-03 12126   0.123E-01    0.308E-01
RMM:   8    -0.652200040626E+03   -0.70327E-04   -0.15508E-03 11864   0.109E-01    0.362E-01
RMM:   9    -0.652199289975E+03    0.75065E-03   -0.85085E-04 11179   0.790E-02    0.697E-02
RMM:  10    -0.652199393387E+03   -0.10341E-03   -0.55355E-04 10700   0.411E-02    0.143E-01
RMM:  11    -0.652199303040E+03    0.90347E-04   -0.21631E-04  9898   0.292E-02    0.266E-02
RMM:  12    -0.652199306176E+03   -0.31364E-05   -0.12843E-04  9252   0.163E-02    0.203E-02
RMM:  13    -0.652199311759E+03   -0.55833E-05   -0.37304E-05  6449   0.142E-02
  17 F= -.65219931E+03 E0= -.65212979E+03  d E =-.565403E-01
 curvature:  -1.08 expect dE=-0.457E-01 dE for cont linesearch -0.114E-03
 trial: gam= 0.35660 g(F)=  0.369E-01 g(S)=  0.551E-02 ort = 0.431E-02 (trialstep = 0.723E+00)
 search vector abs. value=  0.678E-01
 bond charge predicted
       N       E                     dE             d eps       ncg     rms          rms(c)
DAV:   1    -0.652170020023E+03    0.29286E-01   -0.57894E+00 10944   0.110E+01    0.151E+00
RMM:   2    -0.652581183747E+03   -0.41116E+00   -0.10502E+00 12987   0.287E+00    0.691E+00
RMM:   3    -0.652236943282E+03    0.34424E+00   -0.17543E-01 11234   0.145E+00    0.162E+00
RMM:   4    -0.652230221447E+03    0.67218E-02   -0.45683E-02 13309   0.472E-01    0.112E+00
RMM:   5    -0.652226458792E+03    0.37627E-02   -0.11806E-02 12602   0.261E-01    0.891E-01
RMM:   6    -0.652222866407E+03    0.35924E-02   -0.43407E-03 11295   0.201E-01    0.413E-01
RMM:   7    -0.652222280392E+03    0.58602E-03   -0.43755E-03 13883   0.128E-01    0.328E-01
RMM:   8    -0.652222600662E+03   -0.32027E-03   -0.16080E-03 11999   0.117E-01    0.436E-01
RMM:   9    -0.652221591937E+03    0.10087E-02   -0.96254E-04 12328   0.862E-02    0.128E-01
RMM:  10    -0.652221671493E+03   -0.79557E-04   -0.56458E-04 11767   0.538E-02    0.170E-01
RMM:  11    -0.652221549926E+03    0.12157E-03   -0.28952E-04 11770   0.357E-02    0.521E-02
WARNING in EDDRMM: call to ZHEGV failed, returncode =   6  3      5
RMM:  12    -0.652221559762E+03   -0.98355E-05   -0.14481E-04 10467   0.230E-02    0.591E-02
RMM:  13    -0.652221548416E+03    0.11345E-04   -0.72530E-05  8670   0.194E-02    0.248E-02
RMM:  14    -0.652221549191E+03   -0.77478E-06   -0.43695E-05  7622   0.150E-02
  18 F= -.65222155E+03 E0= -.65215191E+03  d E =-.222374E-01
 trial-energy change:   -0.022237  1 .order   -0.022054   -0.031777   -0.012330
 step:   1.1442(harm=  1.1820)  dis= 0.01370  next Energy=  -652.225172 (dE=-0.259E-01)
 bond charge predicted
       N       E                     dE             d eps       ncg     rms          rms(c)
DAV:   1    -0.652208880540E+03    0.12668E-01   -0.19669E+00 11088   0.641E+00    0.876E-01
RMM:   2    -0.652345833794E+03   -0.13695E+00   -0.34284E-01 12719   0.168E+00    0.403E+00
RMM:   3    -0.652230462057E+03    0.11537E+00   -0.62928E-02 11003   0.931E-01    0.943E-01
RMM:   4    -0.652228449423E+03    0.20126E-02   -0.16992E-02 12914   0.304E-01    0.661E-01
RMM:   5    -0.652227226804E+03    0.12226E-02   -0.43781E-03 12566   0.162E-01    0.529E-01
RMM:   6    -0.652225937730E+03    0.12891E-02   -0.15002E-03 11000   0.119E-01    0.236E-01
RMM:   7    -0.652225724982E+03    0.21275E-03   -0.14911E-03 13670   0.764E-02    0.182E-01
RMM:   8    -0.652225855805E+03   -0.13082E-03   -0.53639E-04 11261   0.707E-02    0.254E-01
RMM:   9    -0.652225509796E+03    0.34601E-03   -0.32498E-04 11302   0.517E-02    0.654E-02
RMM:  10    -0.652225550017E+03   -0.40221E-04   -0.19355E-04 10673   0.326E-02    0.108E-01
RMM:  11    -0.652225499309E+03    0.50708E-04   -0.10173E-04  9404   0.231E-02    0.278E-02
WARNING in EDDRMM: call to ZHEGV failed, returncode =   6  3      6
RMM:  12    -0.652225503337E+03   -0.40279E-05   -0.50757E-05  7156   0.174E-02
  19 F= -.65222550E+03 E0= -.65215582E+03  d E =-.261916E-01
 curvature:  -0.91 expect dE=-0.454E-01 dE for cont linesearch -0.299E-04
 trial: gam= 1.19182 g(F)=  0.159E-01 g(S)=  0.342E-01 ort = 0.150E-02 (trialstep = 0.365E+00)
 search vector abs. value=  0.150E+00
 bond charge predicted
       N       E                     dE             d eps       ncg     rms          rms(c)
DAV:   1    -0.652213965535E+03    0.11534E-01   -0.32243E+00 11016   0.791E+00    0.117E+00
RMM:   2    -0.652481791537E+03   -0.26783E+00   -0.60117E-01 12461   0.228E+00    0.594E+00
RMM:   3    -0.652255507614E+03    0.22628E+00   -0.11015E-01 11229   0.116E+00    0.172E+00
RMM:   4    -0.652243839094E+03    0.11669E-01   -0.29205E-02 13047   0.427E-01    0.720E-01
RMM:   5    -0.652242535531E+03    0.13036E-02   -0.81865E-03 12729   0.216E-01    0.636E-01
RMM:   6    -0.652240697184E+03    0.18383E-02   -0.27422E-03 11341   0.160E-01    0.343E-01
RMM:   7    -0.652240185153E+03    0.51203E-03   -0.26573E-03 13506   0.998E-02    0.222E-01
RMM:   8    -0.652240586394E+03   -0.40124E-03   -0.10661E-03 11371   0.102E-01    0.370E-01
RMM:   9    -0.652239826471E+03    0.75992E-03   -0.57641E-04 11343   0.743E-02    0.843E-02
RMM:  10    -0.652239897731E+03   -0.71261E-04   -0.35420E-04 11306   0.425E-02    0.138E-01
RMM:  11    -0.652239815928E+03    0.81803E-04   -0.15567E-04 10306   0.290E-02    0.409E-02
RMM:  12    -0.652239830141E+03   -0.14214E-04   -0.82818E-05  8494   0.193E-02    0.549E-02
RMM:  13    -0.652239822747E+03    0.73947E-05   -0.42953E-05  6674   0.191E-02
  20 F= -.65223982E+03 E0= -.65217051E+03  d E =-.143194E-01
 trial-energy change:   -0.014319  1 .order   -0.014324   -0.018942   -0.009706
 step:   0.7487(harm=  0.7487)  dis= 0.01342  next Energy=  -652.244927 (dE=-0.194E-01)
 bond charge predicted
       N       E                     dE             d eps       ncg     rms          rms(c)
DAV:   1    -0.652216085703E+03    0.23744E-01   -0.35611E+00 11040   0.834E+00    0.124E+00
RMM:   2    -0.652513941914E+03   -0.29786E+00   -0.66725E-01 12384   0.240E+00    0.626E+00
RMM:   3    -0.652262492334E+03    0.25145E+00   -0.12231E-01 11160   0.123E+00    0.183E+00
RMM:   4    -0.652249105208E+03    0.13387E-01   -0.32562E-02 12869   0.451E-01    0.747E-01
RMM:   5    -0.652247704265E+03    0.14009E-02   -0.91296E-03 12628   0.224E-01    0.659E-01
RMM:   6    -0.652245714992E+03    0.19893E-02   -0.30427E-03 11298   0.168E-01    0.358E-01
RMM:   7    -0.652245170760E+03    0.54423E-03   -0.28842E-03 13660   0.105E-01    0.233E-01
RMM:   8    -0.652245590380E+03   -0.41962E-03   -0.11577E-03 11523   0.106E-01    0.380E-01
RMM:   9    -0.652244798309E+03    0.79207E-03   -0.64169E-04 11525   0.767E-02    0.915E-02
RMM:  10    -0.652244870368E+03   -0.72059E-04   -0.40021E-04 11558   0.438E-02    0.140E-01
RMM:  11    -0.652244790563E+03    0.79805E-04   -0.18191E-04 10935   0.300E-02    0.431E-02
RMM:  12    -0.652244807527E+03   -0.16964E-04   -0.95442E-05  9189   0.196E-02    0.575E-02
RMM:  13    -0.652244800914E+03    0.66135E-05   -0.48029E-05  7029   0.193E-02
  21 F= -.65224480E+03 E0= -.65217591E+03  d E =-.192976E-01
 curvature:  -1.08 expect dE=-0.292E-01 dE for cont linesearch -0.269E-05
 trial: gam= 0.57960 g(F)=  0.210E-01 g(S)=  0.605E-02 ort =-0.610E-03 (trialstep = 0.442E+00)
 search vector abs. value=  0.767E-01
 bond charge predicted
       N       E                     dE             d eps       ncg     rms          rms(c)
DAV:   1    -0.652225027170E+03    0.19780E-01   -0.23274E+00  9072   0.628E+00    0.331E-01
RMM:   2    -0.652257737933E+03   -0.32711E-01   -0.31824E-01 13648   0.145E+00    0.798E-01
RMM:   3    -0.652256513562E+03    0.12244E-02   -0.20231E-02 13067   0.413E-01    0.536E-01
RMM:   4    -0.652257027631E+03   -0.51407E-03   -0.44675E-03 12535   0.180E-01    0.592E-01
RMM:   5    -0.652255194822E+03    0.18328E-02   -0.15641E-03 10800   0.121E-01    0.179E-01
RMM:   6    -0.652255264224E+03   -0.69402E-04   -0.12305E-03 11474   0.745E-02    0.211E-01
RMM:   7    -0.652255090278E+03    0.17395E-03   -0.63167E-04 11821   0.591E-02    0.142E-01
RMM:   8    -0.652255172720E+03   -0.82441E-04   -0.38748E-04 10663   0.595E-02    0.204E-01
RMM:   9    -0.652254942672E+03    0.23005E-03   -0.23195E-04 10218   0.457E-02    0.497E-02
RMM:  10    -0.652254963744E+03   -0.21071E-04   -0.13166E-04  7976   0.267E-02    0.742E-02
RMM:  11    -0.652254939723E+03    0.24020E-04   -0.63589E-05  7056   0.210E-02    0.192E-02
RMM:  12    -0.652254944081E+03   -0.43578E-05   -0.29534E-05  6204   0.144E-02
  22 F= -.65225494E+03 E0= -.65218619E+03  d E =-.101432E-01
 trial-energy change:   -0.010143  1 .order   -0.010017   -0.011785   -0.008249
 step:   1.1119(harm=  1.4725)  dis= 0.01848  next Energy=  -652.261639 (dE=-0.168E-01)
 bond charge predicted
       N       E                     dE             d eps       ncg     rms          rms(c)
DAV:   1    -0.652194764620E+03    0.60175E-01   -0.53549E+00  9072   0.953E+00    0.503E-01
RMM:   2    -0.652270461188E+03   -0.75697E-01   -0.73241E-01 13626   0.219E+00    0.125E+00
RMM:   3    -0.652267189516E+03    0.32717E-02   -0.47050E-02 13076   0.635E-01    0.813E-01
RMM:   4    -0.652268565436E+03   -0.13759E-02   -0.10465E-02 12581   0.278E-01    0.913E-01
RMM:   5    -0.652264214268E+03    0.43512E-02   -0.36888E-03 11393   0.184E-01    0.272E-01
RMM:   6    -0.652264363953E+03   -0.14968E-03   -0.28909E-03 12034   0.109E-01    0.314E-01
RMM:   7    -0.652263981043E+03    0.38291E-03   -0.14642E-03 12821   0.861E-02    0.213E-01
RMM:   8    -0.652264126440E+03   -0.14540E-03   -0.83954E-04 11075   0.839E-02    0.291E-01
RMM:   9    -0.652263647447E+03    0.47899E-03   -0.53164E-04 11192   0.654E-02    0.750E-02
RMM:  10    -0.652263696141E+03   -0.48694E-04   -0.30310E-04 10053   0.361E-02    0.112E-01
RMM:  11    -0.652263642511E+03    0.53631E-04   -0.14011E-04  9180   0.257E-02    0.299E-02
RMM:  12    -0.652263651886E+03   -0.93751E-05   -0.64267E-05  6970   0.177E-02
  23 F= -.65226365E+03 E0= -.65219520E+03  d E =-.188510E-01
 curvature:  -1.86 expect dE=-0.265E-01 dE for cont linesearch -0.106E-02
 ZBRENT: increasing intervall
 opt :   2.4520  next Energy=  -652.256327 (dE=-0.115E-01)
 bond charge predicted
       N       E                     dE             d eps       ncg     rms          rms(c)
DAV:   1    -0.651979268000E+03    0.28437E+00   -0.21409E+01  9072   0.191E+01    0.101E+00
RMM:   2    -0.652287831168E+03   -0.30856E+00   -0.29623E+00 13637   0.439E+00    0.263E+00
RMM:   3    -0.652270539875E+03    0.17291E-01   -0.18463E-01 13122   0.123E+00    0.163E+00
RMM:   4    -0.652276345507E+03   -0.58056E-02   -0.41125E-02 12717   0.557E-01    0.184E+00
RMM:   5    -0.652258553709E+03    0.17792E-01   -0.14798E-02 11976   0.355E-01    0.547E-01
RMM:   6    -0.652259143284E+03   -0.58958E-03   -0.11782E-02 12923   0.208E-01    0.624E-01
RMM:   7    -0.652257574107E+03    0.15692E-02   -0.57893E-03 13230   0.168E-01    0.411E-01
RMM:   8    -0.652258076718E+03   -0.50261E-03   -0.33066E-03 12107   0.159E-01    0.559E-01
RMM:   9    -0.652256266665E+03    0.18101E-02   -0.21009E-03 12182   0.118E-01    0.142E-01
RMM:  10    -0.652256483750E+03   -0.21708E-03   -0.12017E-03 11517   0.639E-02    0.228E-01
RMM:  11    -0.652256258356E+03    0.22539E-03   -0.52239E-04 10997   0.447E-02    0.607E-02
RMM:  12    -0.652256297300E+03   -0.38944E-04   -0.27016E-04 10207   0.298E-02    0.970E-02
RMM:  13    -0.652256253764E+03    0.43536E-04   -0.13200E-04  9496   0.238E-02    0.204E-02
RMM:  14    -0.652256256863E+03   -0.30988E-05   -0.78579E-05  7730   0.142E-02
  24 F= -.65225626E+03 E0= -.65218858E+03  d E =-.114559E-01
 curvature:  12.89 expect dE= 0.743E+00 dE for cont linesearch  0.587E-01
 ZBRENT: bracketing found
 ZBRENT: interpolating
 opt :   1.4617  next Energy=  -652.264807 (dE=-0.200E-01)
 bond charge predicted
       N       E                     dE             d eps       ncg     rms          rms(c)
DAV:   1    -0.652117262719E+03    0.13899E+00   -0.11709E+01  9072   0.141E+01    0.742E-01
RMM:   2    -0.652282293161E+03   -0.16503E+00   -0.15854E+00 13671   0.324E+00    0.191E+00
RMM:   3    -0.652273705345E+03    0.85878E-02   -0.96930E-02 12882   0.873E-01    0.126E+00
RMM:   4    -0.652275421265E+03   -0.17159E-02   -0.23058E-02 12933   0.362E-01    0.129E+00
RMM:   5    -0.652266280294E+03    0.91410E-02   -0.74581E-03 11528   0.257E-01    0.391E-01
RMM:   6    -0.652266576381E+03   -0.29609E-03   -0.57557E-03 12178   0.161E-01    0.469E-01
RMM:   7    -0.652265566473E+03    0.10099E-02   -0.30276E-03 12899   0.123E-01    0.279E-01
RMM:   8    -0.652266237414E+03   -0.67094E-03   -0.18997E-03 11865   0.121E-01    0.488E-01
RMM:   9    -0.652264943940E+03    0.12935E-02   -0.10984E-03 11560   0.948E-02    0.103E-01
RMM:  10    -0.652265063016E+03   -0.11908E-03   -0.70590E-04 10979   0.501E-02    0.166E-01
RMM:  11    -0.652264936192E+03    0.12682E-03   -0.26932E-04  9970   0.331E-02    0.370E-02
RMM:  12    -0.652264958971E+03   -0.22780E-04   -0.13869E-04  8831   0.221E-02    0.712E-02
RMM:  13    -0.652264936820E+03    0.22151E-04   -0.60721E-05  6725   0.198E-02    0.181E-02
RMM:  14    -0.652264939346E+03   -0.25259E-05   -0.43905E-05  6638   0.147E-02
  25 F= -.65226494E+03 E0= -.65219669E+03  d E =-.201384E-01
 curvature:  -0.25 expect dE=-0.480E-02 dE for cont linesearch -0.315E-05
 trial: gam= 0.55446 g(F)=  0.162E-01 g(S)=  0.274E-02 ort = 0.976E-03 (trialstep = 0.646E+00)
 search vector abs. value=  0.436E-01
 bond charge predicted
       N       E                     dE             d eps       ncg     rms          rms(c)
DAV:   1    -0.652236521813E+03    0.28415E-01   -0.30088E+00  9816   0.799E+00    0.878E-01
RMM:   2    -0.652391351623E+03   -0.15483E+00   -0.55549E-01 13672   0.194E+00    0.411E+00
RMM:   3    -0.652282915471E+03    0.10844E+00   -0.66650E-02 11265   0.880E-01    0.133E+00
RMM:   4    -0.652276869573E+03    0.60459E-02   -0.20823E-02 12635   0.319E-01    0.638E-01
RMM:   5    -0.652274854358E+03    0.20152E-02   -0.57920E-03 12939   0.161E-01    0.368E-01
RMM:   6    -0.652274518337E+03    0.33602E-03   -0.15597E-03 11395   0.113E-01    0.319E-01
RMM:   7    -0.652274058138E+03    0.46020E-03   -0.15451E-03 13105   0.871E-02    0.181E-01
RMM:   8    -0.652274183584E+03   -0.12545E-03   -0.73546E-04 11287   0.801E-02    0.257E-01
RMM:   9    -0.652273808170E+03    0.37541E-03   -0.42566E-04 11341   0.589E-02    0.663E-02
RMM:  10    -0.652273857512E+03   -0.49341E-04   -0.24221E-04 10485   0.336E-02    0.115E-01
RMM:  11    -0.652273795066E+03    0.62446E-04   -0.96915E-05  8862   0.234E-02    0.267E-02
RMM:  12    -0.652273801780E+03   -0.67137E-05   -0.50106E-05  6990   0.171E-02
  26 F= -.65227380E+03 E0= -.65220553E+03  d E =-.886243E-02
 trial-energy change:   -0.008862  1 .order   -0.008851   -0.012579   -0.005124
 step:   1.0897(harm=  1.0897)  dis= 0.01788  next Energy=  -652.275552 (dE=-0.106E-01)
 bond charge predicted
       N       E                     dE             d eps       ncg     rms          rms(c)
DAV:   1    -0.652258074387E+03    0.15721E-01   -0.14234E+00  9840   0.549E+00    0.606E-01
RMM:   2    -0.652331779490E+03   -0.73705E-01   -0.26351E-01 13572   0.134E+00    0.285E+00
RMM:   3    -0.652280078267E+03    0.51701E-01   -0.31932E-02 11115   0.612E-01    0.927E-01
RMM:   4    -0.652277171221E+03    0.29070E-02   -0.10077E-02 12348   0.225E-01    0.438E-01
RMM:   5    -0.652276217908E+03    0.95331E-03   -0.28171E-03 12830   0.112E-01    0.248E-01
RMM:   6    -0.652276087008E+03    0.13090E-03   -0.77242E-04 10900   0.800E-02    0.224E-01
RMM:   7    -0.652275864589E+03    0.22242E-03   -0.73390E-04 12981   0.610E-02    0.123E-01
RMM:   8    -0.652275928880E+03   -0.64290E-04   -0.35623E-04 10714   0.584E-02    0.178E-01
RMM:   9    -0.652275750801E+03    0.17808E-03   -0.20703E-04 10571   0.412E-02    0.455E-02
RMM:  10    -0.652275775365E+03   -0.24564E-04   -0.11975E-04  9237   0.252E-02    0.814E-02
RMM:  11    -0.652275744975E+03    0.30390E-04   -0.53230E-05  6965   0.199E-02    0.195E-02
RMM:  12    -0.652275748317E+03   -0.33419E-05   -0.31017E-05  6235   0.163E-02
  27 F= -.65227575E+03 E0= -.65220748E+03  d E =-.108090E-01
 curvature:  -1.22 expect dE=-0.231E-01 dE for cont linesearch -0.494E-05
 trial: gam= 0.98520 g(F)=  0.621E-02 g(S)=  0.127E-01 ort = 0.420E-03 (trialstep = 0.516E+00)
 search vector abs. value=  0.621E-01
 bond charge predicted
       N       E                     dE             d eps       ncg     rms          rms(c)
DAV:   1    -0.652253018925E+03    0.22726E-01   -0.28085E+00 10632   0.797E+00    0.106E+00
RMM:   2    -0.652466602557E+03   -0.21358E+00   -0.57136E-01 12744   0.211E+00    0.501E+00
RMM:   3    -0.652290729248E+03    0.17587E+00   -0.90620E-02 11234   0.105E+00    0.125E+00
RMM:   4    -0.652286231023E+03    0.44982E-02   -0.24790E-02 13070   0.361E-01    0.774E-01
RMM:   5    -0.652284989926E+03    0.12411E-02   -0.65706E-03 12526   0.195E-01    0.657E-01
RMM:   6    -0.652282852855E+03    0.21371E-02   -0.24781E-03 11128   0.159E-01    0.283E-01
RMM:   7    -0.652282375921E+03    0.47693E-03   -0.22434E-03 13172   0.874E-02    0.167E-01
RMM:   8    -0.652282914393E+03   -0.53847E-03   -0.96967E-04 11415   0.974E-02    0.373E-01
RMM:   9    -0.652282159492E+03    0.75490E-03   -0.50556E-04 10685   0.747E-02    0.844E-02
RMM:  10    -0.652282206406E+03   -0.46914E-04   -0.32513E-04 11267   0.432E-02    0.123E-01
RMM:  11    -0.652282139802E+03    0.66604E-04   -0.13157E-04  9638   0.275E-02    0.365E-02
RMM:  12    -0.652282156290E+03   -0.16488E-04   -0.66570E-05  8058   0.184E-02    0.579E-02
RMM:  13    -0.652282145403E+03    0.10887E-04   -0.33588E-05  6377   0.184E-02    0.182E-02
RMM:  14    -0.652282154301E+03   -0.88981E-05   -0.37387E-05  6724   0.134E-02
  28 F= -.65228215E+03 E0= -.65221425E+03  d E =-.640598E-02
 trial-energy change:   -0.006406  1 .order   -0.006353   -0.009971   -0.002734
 step:   0.7001(harm=  0.7111)  dis= 0.01382  next Energy=  -652.282644 (dE=-0.690E-02)
 bond charge predicted
       N       E                     dE             d eps       ncg     rms          rms(c)
DAV:   1    -0.652278958826E+03    0.31866E-02   -0.35740E-01 11208   0.284E+00    0.380E-01
RMM:   2    -0.652306350350E+03   -0.27392E-01   -0.72501E-02 12641   0.744E-01    0.179E+00
RMM:   3    -0.652283780221E+03    0.22570E-01   -0.11445E-02 10804   0.374E-01    0.455E-01
RMM:   4    -0.652283166892E+03    0.61333E-03   -0.31569E-03 11976   0.134E-01    0.274E-01
RMM:   5    -0.652283011432E+03    0.15546E-03   -0.84614E-04 11058   0.721E-02    0.230E-01
RMM:   6    -0.652282748383E+03    0.26305E-03   -0.31631E-04  9554   0.595E-02    0.992E-02
RMM:   7    -0.652282696172E+03    0.52211E-04   -0.28042E-04 12000   0.344E-02    0.607E-02
RMM:   8    -0.652282759774E+03   -0.63602E-04   -0.12127E-04  8668   0.388E-02    0.126E-01
RMM:   9    -0.652282674701E+03    0.85072E-04   -0.61092E-05  7321   0.284E-02    0.257E-02
RMM:  10    -0.652282681277E+03   -0.65755E-05   -0.32044E-05  6334   0.197E-02
  29 F= -.65228268E+03 E0= -.65221491E+03  d E =-.693296E-02
 curvature:  -1.14 expect dE=-0.118E-01 dE for cont linesearch -0.332E-05
 trial: gam= 0.55618 g(F)=  0.749E-02 g(S)=  0.290E-02 ort = 0.425E-03 (trialstep = 0.553E+00)
 search vector abs. value=  0.301E-01
 bond charge predicted
       N       E                     dE             d eps       ncg     rms          rms(c)
DAV:   1    -0.652264936888E+03    0.17738E-01   -0.15026E+00  9072   0.570E+00    0.301E-01
RMM:   2    -0.652287667742E+03   -0.22731E-01   -0.23934E-01 13594   0.123E+00    0.413E-01
RMM:   3    -0.652289164514E+03   -0.14968E-02   -0.16396E-02 12873   0.375E-01    0.528E-01
RMM:   4    -0.652288676628E+03    0.48789E-03   -0.31538E-03 12189   0.160E-01    0.452E-01
RMM:   5    -0.652287707722E+03    0.96891E-03   -0.12080E-03 10467   0.999E-02    0.151E-01
RMM:   6    -0.652287884896E+03   -0.17717E-03   -0.89285E-04 11280   0.655E-02    0.241E-01
RMM:   7    -0.652287651795E+03    0.23310E-03   -0.46635E-04 11304   0.550E-02    0.131E-01
RMM:   8    -0.652287702930E+03   -0.51135E-04   -0.31928E-04 10263   0.535E-02    0.176E-01
RMM:   9    -0.652287529238E+03    0.17369E-03   -0.16145E-04  9185   0.391E-02    0.352E-02
RMM:  10    -0.652287545620E+03   -0.16382E-04   -0.10175E-04  7551   0.230E-02    0.599E-02
RMM:  11    -0.652287529784E+03    0.15836E-04   -0.41716E-05  6289   0.195E-02    0.136E-02
RMM:  12    -0.652287531458E+03   -0.16740E-05   -0.31290E-05  6250   0.115E-02
  30 F= -.65228753E+03 E0= -.65221984E+03  d E =-.485018E-02
 trial-energy change:   -0.004850  1 .order   -0.004801   -0.005877   -0.003726
 step:   1.2814(harm=  1.5110)  dis= 0.01549  next Energy=  -652.290098 (dE=-0.742E-02)
 bond charge predicted
       N       E                     dE             d eps       ncg     rms          rms(c)
DAV:   1    -0.652251622320E+03    0.35907E-01   -0.26107E+00  9072   0.751E+00    0.396E-01
RMM:   2    -0.652291087492E+03   -0.39465E-01   -0.41585E-01 13591   0.162E+00    0.532E-01
RMM:   3    -0.652293614094E+03   -0.25266E-02   -0.27929E-02 12933   0.490E-01    0.683E-01
RMM:   4    -0.652292578667E+03    0.10354E-02   -0.54350E-03 12441   0.209E-01    0.559E-01
RMM:   5    -0.652291155765E+03    0.14229E-02   -0.20878E-03 11064   0.123E-01    0.208E-01
RMM:   6    -0.652291401573E+03   -0.24581E-03   -0.14576E-03 11761   0.816E-02    0.304E-01
RMM:   7    -0.652291043936E+03    0.35764E-03   -0.76528E-04 11704   0.695E-02    0.173E-01
RMM:   8    -0.652291130483E+03   -0.86546E-04   -0.57279E-04 11019   0.678E-02    0.234E-01
RMM:   9    -0.652290828151E+03    0.30233E-03   -0.27569E-04 10167   0.505E-02    0.503E-02
RMM:  10    -0.652290854737E+03   -0.26585E-04   -0.18038E-04  8666   0.285E-02    0.800E-02
RMM:  11    -0.652290827309E+03    0.27427E-04   -0.74897E-05  7104   0.221E-02    0.182E-02
RMM:  12    -0.652290827849E+03   -0.53975E-06   -0.48353E-05  6613   0.134E-02
  31 F= -.65229083E+03 E0= -.65222324E+03  d E =-.814657E-02
 curvature:  -2.01 expect dE=-0.150E-01 dE for cont linesearch -0.240E-03
 ZBRENT: extrapolating
 opt :   1.5658  next Energy=  -652.291097 (dE=-0.842E-02)
 bond charge predicted
       N       E                     dE             d eps       ncg     rms          rms(c)
DAV:   1    -0.652285189238E+03    0.56381E-02   -0.39816E-01  9312   0.293E+00    0.155E-01
RMM:   2    -0.652291229728E+03   -0.60405E-02   -0.63129E-02 13589   0.630E-01    0.227E-01
RMM:   3    -0.652291541809E+03   -0.31208E-03   -0.44207E-03 12799   0.193E-01    0.252E-01
RMM:   4    -0.652291408793E+03    0.13302E-03   -0.83026E-04 11171   0.820E-02    0.207E-01
RMM:   5    -0.652291212685E+03    0.19611E-03   -0.30479E-04  8964   0.514E-02    0.868E-02
RMM:   6    -0.652291243225E+03   -0.30541E-04   -0.20659E-04  9217   0.334E-02    0.115E-01
RMM:   7    -0.652291192164E+03    0.51061E-04   -0.13032E-04  9187   0.289E-02    0.645E-02
RMM:   8    -0.652291211191E+03   -0.19026E-04   -0.84491E-05  7481   0.278E-02    0.972E-02
RMM:   9    -0.652291161837E+03    0.49353E-04   -0.45739E-05  6595   0.237E-02    0.220E-02
RMM:  10    -0.652291164236E+03   -0.23986E-05   -0.24834E-05  5999   0.162E-02
  32 F= -.65229116E+03 E0= -.65222362E+03  d E =-.848296E-02
 curvature:  -2.26 expect dE=-0.232E-01 dE for cont linesearch -0.332E-05
 trial: gam= 0.95024 g(F)=  0.783E-02 g(S)=  0.245E-02 ort = 0.210E-03 (trialstep = 0.600E+00)
 search vector abs. value=  0.378E-01
 bond charge predicted
       N       E                     dE             d eps       ncg     rms          rms(c)
DAV:   1    -0.652262860905E+03    0.28301E-01   -0.22070E+00  9072   0.681E+00    0.402E-01
RMM:   2    -0.652306738951E+03   -0.43878E-01   -0.36151E-01 13664   0.142E+00    0.123E+00
RMM:   3    -0.652297338760E+03    0.94002E-02   -0.22478E-02 11641   0.491E-01    0.475E-01
RMM:   4    -0.652299019197E+03   -0.16804E-02   -0.71664E-03 12629   0.194E-01    0.717E-01
RMM:   5    -0.652296538686E+03    0.24805E-02   -0.19997E-03 11010   0.127E-01    0.153E-01
RMM:   6    -0.652296702830E+03   -0.16414E-03   -0.13919E-03 11486   0.747E-02    0.233E-01
RMM:   7    -0.652296438476E+03    0.26435E-03   -0.65440E-04 12020   0.603E-02    0.947E-02
RMM:   8    -0.652296340229E+03    0.98247E-04   -0.43926E-04 12816   0.440E-02    0.337E-02
RMM:   9    -0.652296354034E+03   -0.13805E-04   -0.11713E-04  8429   0.278E-02    0.582E-02
RMM:  10    -0.652296338987E+03    0.15047E-04   -0.49778E-05  6586   0.251E-02    0.241E-02
RMM:  11    -0.652296338427E+03    0.55983E-06   -0.40064E-05  6585   0.143E-02
  33 F= -.65229634E+03 E0= -.65222884E+03  d E =-.517419E-02
 trial-energy change:   -0.005174  1 .order   -0.005075   -0.006291   -0.003860
 step:   1.2352(harm=  1.5538)  dis= 0.01484  next Energy=  -652.298495 (dE=-0.733E-02)
 bond charge predicted
       N       E                     dE             d eps       ncg     rms          rms(c)
DAV:   1    -0.652261812349E+03    0.34527E-01   -0.24681E+00  9072   0.720E+00    0.423E-01
RMM:   2    -0.652310577651E+03   -0.48765E-01   -0.40379E-01 13659   0.150E+00    0.129E+00
RMM:   3    -0.652300368934E+03    0.10209E-01   -0.24920E-02 11678   0.514E-01    0.506E-01
RMM:   4    -0.652302186186E+03   -0.18173E-02   -0.79004E-03 12688   0.203E-01    0.751E-01
RMM:   5    -0.652299465615E+03    0.27206E-02   -0.22302E-03 11080   0.134E-01    0.175E-01
RMM:   6    -0.652299630372E+03   -0.16476E-03   -0.15356E-03 11440   0.786E-02    0.251E-01
RMM:   7    -0.652299374025E+03    0.25635E-03   -0.74252E-04 12276   0.597E-02    0.133E-01
RMM:   8    -0.652299556050E+03   -0.18202E-03   -0.46693E-04 11349   0.625E-02    0.254E-01
RMM:   9    -0.652299219462E+03    0.33659E-03   -0.24455E-04 10509   0.490E-02    0.293E-02
RMM:  10    -0.652299228900E+03   -0.94381E-05   -0.18607E-04  9878   0.210E-02    0.269E-02
RMM:  11    -0.652299231369E+03   -0.24683E-05   -0.43457E-05  6342   0.178E-02
  34 F= -.65229923E+03 E0= -.65223176E+03  d E =-.806713E-02
 curvature:  -2.49 expect dE=-0.215E-01 dE for cont linesearch -0.297E-03
 ZBRENT: extrapolating
 opt :   1.5486  next Energy=  -652.299564 (dE=-0.840E-02)
 bond charge predicted
       N       E                     dE             d eps       ncg     rms          rms(c)
DAV:   1    -0.652290444372E+03    0.87845E-02   -0.60146E-01  9120   0.355E+00    0.210E-01
RMM:   2    -0.652302420852E+03   -0.11976E-01   -0.99113E-02 13637   0.740E-01    0.637E-01
RMM:   3    -0.652299888962E+03    0.25319E-02   -0.61231E-03 11454   0.260E-01    0.244E-01
RMM:   4    -0.652300374099E+03   -0.48514E-03   -0.19928E-03 11811   0.104E-01    0.378E-01
RMM:   5    -0.652299700834E+03    0.67326E-03   -0.56840E-04 10004   0.696E-02    0.924E-02
RMM:   6    -0.652299726835E+03   -0.26001E-04   -0.37765E-04  9491   0.401E-02    0.115E-01
RMM:   7    -0.652299666410E+03    0.60425E-04   -0.19220E-04 10232   0.310E-02    0.502E-02
RMM:   8    -0.652299682803E+03   -0.16393E-04   -0.12971E-04  9279   0.306E-02    0.948E-02
RMM:   9    -0.652299639142E+03    0.43661E-04   -0.46904E-05  6427   0.233E-02    0.229E-02
RMM:  10    -0.652299641664E+03   -0.25226E-05   -0.33393E-05  6524   0.180E-02
  35 F= -.65229964E+03 E0= -.65223219E+03  d E =-.847743E-02
 curvature:  -2.79 expect dE=-0.360E-01 dE for cont linesearch -0.256E-05
 trial: gam= 1.21573 g(F)=  0.575E-02 g(S)=  0.715E-02 ort = 0.186E-03 (trialstep = 0.431E+00)
 search vector abs. value=  0.693E-01
 bond charge predicted
       N       E                     dE             d eps       ncg     rms          rms(c)
DAV:   1    -0.652275875702E+03    0.23763E-01   -0.20416E+00  9072   0.660E+00    0.714E-01
RMM:   2    -0.652388267371E+03   -0.11239E+00   -0.40702E-01 13869   0.160E+00    0.349E+00
RMM:   3    -0.652309662527E+03    0.78605E-01   -0.45734E-02 11198   0.736E-01    0.110E+00
RMM:   4    -0.652305801615E+03    0.38609E-02   -0.15629E-02 12663   0.283E-01    0.534E-01
RMM:   5    -0.652304929499E+03    0.87212E-03   -0.43994E-03 12661   0.146E-01    0.406E-01
RMM:   6    -0.652304089059E+03    0.84044E-03   -0.13947E-03 11063   0.109E-01    0.206E-01
RMM:   7    -0.652303895254E+03    0.19380E-03   -0.13595E-03 13123   0.685E-02    0.142E-01
RMM:   8    -0.652304182464E+03   -0.28721E-03   -0.65193E-04 11265   0.793E-02    0.283E-01
RMM:   9    -0.652303728969E+03    0.45349E-03   -0.35066E-04 10584   0.621E-02    0.731E-02
RMM:  10    -0.652303754353E+03   -0.25383E-04   -0.23264E-04 10347   0.333E-02    0.890E-02
RMM:  11    -0.652303725253E+03    0.29099E-04   -0.85702E-05  8489   0.214E-02    0.218E-02
WARNING in EDDRMM: call to ZHEGV failed, returncode =   6  3      6
RMM:  12    -0.652303732885E+03   -0.76314E-05   -0.39444E-05  6587   0.157E-02
  36 F= -.65230373E+03 E0= -.65223654E+03  d E =-.409122E-02
 trial-energy change:   -0.004091  1 .order   -0.004031   -0.005666   -0.002396
 step:   0.6995(harm=  0.7476)  dis= 0.01060  next Energy=  -652.304491 (dE=-0.485E-02)
 bond charge predicted
       N       E                     dE             d eps       ncg     rms          rms(c)
DAV:   1    -0.652293872125E+03    0.98531E-02   -0.78866E-01  9096   0.410E+00    0.449E-01
RMM:   2    -0.652338425419E+03   -0.44553E-01   -0.15828E-01 13740   0.997E-01    0.220E+00
RMM:   3    -0.652307047798E+03    0.31378E-01   -0.17572E-02 10980   0.451E-01    0.701E-01
RMM:   4    -0.652305403888E+03    0.16439E-02   -0.60843E-03 12025   0.176E-01    0.328E-01
RMM:   5    -0.652305083336E+03    0.32055E-03   -0.17013E-03 11887   0.898E-02    0.251E-01
RMM:   6    -0.652304764525E+03    0.31881E-03   -0.54448E-04 10127   0.697E-02    0.129E-01
RMM:   7    -0.652304699240E+03    0.65286E-04   -0.51683E-04 12717   0.461E-02    0.918E-02
RMM:   8    -0.652304802055E+03   -0.10282E-03   -0.26153E-04 10372   0.520E-02    0.167E-01
RMM:   9    -0.652304637478E+03    0.16458E-03   -0.14155E-04  9488   0.402E-02    0.322E-02
RMM:  10    -0.652304653643E+03   -0.16165E-04   -0.94361E-05  8328   0.221E-02    0.532E-02
RMM:  11    -0.652304642535E+03    0.11107E-04   -0.31115E-05  6197   0.191E-02    0.142E-02
RMM:  12    -0.652304646331E+03   -0.37956E-05   -0.25266E-05  6105   0.137E-02
  37 F= -.65230465E+03 E0= -.65223759E+03  d E =-.500467E-02
 curvature:  -1.93 expect dE=-0.161E-01 dE for cont linesearch -0.226E-04
 trial: gam= 0.53943 g(F)=  0.477E-02 g(S)=  0.358E-02 ort = 0.902E-03 (trialstep = 0.485E+00)
 search vector abs. value=  0.295E-01
 bond charge predicted
       N       E                     dE             d eps       ncg     rms          rms(c)
DAV:   1    -0.652294617070E+03    0.10025E-01   -0.10549E+00  9072   0.453E+00    0.365E-01
RMM:   2    -0.652317863230E+03   -0.23246E-01   -0.16791E-01 13763   0.989E-01    0.115E+00
RMM:   3    -0.652308954497E+03    0.89087E-02   -0.11937E-02 11404   0.382E-01    0.392E-01
RMM:   4    -0.652310321501E+03   -0.13670E-02   -0.48072E-03 12446   0.164E-01    0.653E-01
RMM:   5    -0.652308275344E+03    0.20462E-02   -0.14881E-03 11594   0.115E-01    0.161E-01
RMM:   6    -0.652308421328E+03   -0.14598E-03   -0.96041E-04 11275   0.763E-02    0.246E-01
RMM:   7    -0.652308081813E+03    0.33951E-03   -0.52214E-04 11455   0.617E-02    0.821E-02
RMM:   8    -0.652308171025E+03   -0.89212E-04   -0.33771E-04 10934   0.485E-02    0.164E-01
RMM:   9    -0.652308021440E+03    0.14958E-03   -0.12202E-04  8092   0.377E-02    0.348E-02
RMM:  10    -0.652308039559E+03   -0.18119E-04   -0.10994E-04  7400   0.219E-02    0.611E-02
RMM:  11    -0.652308022833E+03    0.16726E-04   -0.36479E-05  6239   0.195E-02    0.150E-02
RMM:  12    -0.652308025244E+03   -0.24112E-05   -0.22986E-05  6043   0.116E-02
  38 F= -.65230803E+03 E0= -.65224095E+03  d E =-.337891E-02
 trial-energy change:   -0.003379  1 .order   -0.003301   -0.004285   -0.002317
 step:   0.8838(harm=  1.0565)  dis= 0.00777  next Energy=  -652.309021 (dE=-0.437E-02)
 bond charge predicted
       N       E                     dE             d eps       ncg     rms          rms(c)
DAV:   1    -0.652300245149E+03    0.77777E-02   -0.71294E-01  9072   0.373E+00    0.301E-01
RMM:   2    -0.652316099768E+03   -0.15855E-01   -0.11340E-01 13723   0.814E-01    0.954E-01
RMM:   3    -0.652309949507E+03    0.61503E-02   -0.82490E-03 11278   0.317E-01    0.325E-01
RMM:   4    -0.652310863165E+03   -0.91366E-03   -0.33079E-03 12010   0.137E-01    0.536E-01
RMM:   5    -0.652309505249E+03    0.13579E-02   -0.10233E-03 11175   0.951E-02    0.138E-01
RMM:   6    -0.652309592960E+03   -0.87711E-04   -0.64944E-04 10525   0.644E-02    0.203E-01
RMM:   7    -0.652309384782E+03    0.20818E-03   -0.37698E-04 11395   0.489E-02    0.892E-02
RMM:   8    -0.652309460197E+03   -0.75415E-04   -0.19586E-04  9062   0.451E-02    0.159E-01
RMM:   9    -0.652309330265E+03    0.12993E-03   -0.11238E-04  8164   0.329E-02    0.372E-02
RMM:  10    -0.652309338942E+03   -0.86773E-05   -0.84080E-05  7138   0.218E-02
  39 F= -.65230934E+03 E0= -.65224226E+03  d E =-.469261E-02
 curvature:  -1.60 expect dE=-0.658E-02 dE for cont linesearch -0.114E-03
 ZBRENT: extrapolating
 opt :   1.0573  next Energy=  -652.309465 (dE=-0.482E-02)
 bond charge predicted
       N       E                     dE             d eps       ncg     rms          rms(c)
DAV:   1    -0.652307751921E+03    0.15783E-02   -0.13503E-01  9744   0.162E+00    0.131E-01
RMM:   2    -0.652310780036E+03   -0.30281E-02   -0.21502E-02 13676   0.355E-01    0.421E-01
RMM:   3    -0.652309602786E+03    0.11773E-02   -0.16529E-03 11089   0.145E-01    0.144E-01
RMM:   4    -0.652309774636E+03   -0.17185E-03   -0.66957E-04 10739   0.643E-02    0.232E-01
RMM:   5    -0.652309524501E+03    0.25014E-03   -0.20291E-04  9254   0.426E-02    0.665E-02
RMM:   6    -0.652309537489E+03   -0.12988E-04   -0.13417E-04  7653   0.302E-02    0.877E-02
RMM:   7    -0.652309495898E+03    0.41591E-04   -0.74680E-05  7577   0.246E-02    0.322E-02
RMM:   8    -0.652309512964E+03   -0.17066E-04   -0.42629E-05  6267   0.230E-02    0.673E-02
RMM:   9    -0.652309488036E+03    0.24928E-04   -0.25067E-05  5813   0.212E-02    0.151E-02
RMM:  10    -0.652309490236E+03   -0.21997E-05   -0.16984E-05  5784   0.126E-02
  40 F= -.65230949E+03 E0= -.65224239E+03  d E =-.484391E-02
 curvature:  -1.77 expect dE=-0.102E-01 dE for cont linesearch -0.573E-06
 trial: gam= 0.74909 g(F)=  0.374E-02 g(S)=  0.203E-02 ort = 0.978E-04 (trialstep = 0.600E+00)
 search vector abs. value=  0.225E-01
 bond charge predicted
       N       E                     dE             d eps       ncg     rms          rms(c)
DAV:   1    -0.652295986100E+03    0.13502E-01   -0.12802E+00  9072   0.473E+00    0.236E-01
RMM:   2    -0.652314090931E+03   -0.18105E-01   -0.17142E-01 13588   0.103E+00    0.565E-01
RMM:   3    -0.652313000605E+03    0.10903E-02   -0.12036E-02 13018   0.306E-01    0.310E-01
RMM:   4    -0.652313157868E+03   -0.15726E-03   -0.25250E-03 12230   0.121E-01    0.333E-01
RMM:   5    -0.652312591201E+03    0.56667E-03   -0.78037E-04  9980   0.790E-02    0.119E-01
RMM:   6    -0.652312624633E+03   -0.33432E-04   -0.48004E-04 10317   0.438E-02    0.148E-01
RMM:   7    -0.652312547270E+03    0.77363E-04   -0.23045E-04 10205   0.376E-02    0.938E-02
RMM:   8    -0.652312651190E+03   -0.10392E-03   -0.18481E-04  9534   0.392E-02    0.183E-01
RMM:   9    -0.652312495856E+03    0.15533E-03   -0.12783E-04  8898   0.351E-02    0.420E-02
RMM:  10    -0.652312501595E+03   -0.57395E-05   -0.66597E-05  7239   0.238E-02
  41 F= -.65231250E+03 E0= -.65224545E+03  d E =-.301136E-02
 trial-energy change:   -0.003011  1 .order   -0.003013   -0.003502   -0.002524
 step:   2.1484(harm=  2.1484)  dis= 0.01531  next Energy=  -652.315764 (dE=-0.627E-02)
 bond charge predicted
       N       E                     dE             d eps       ncg     rms          rms(c)
DAV:   1    -0.652205802008E+03    0.10669E+00   -0.85507E+00  9072   0.122E+01    0.614E-01
RMM:   2    -0.652327956843E+03   -0.12215E+00   -0.11415E+00 13605   0.267E+00    0.154E+00
RMM:   3    -0.652318399558E+03    0.95573E-02   -0.79385E-02 13010   0.750E-01    0.788E-01
RMM:   4    -0.652320033064E+03   -0.16335E-02   -0.17310E-02 13093   0.302E-01    0.909E-01
RMM:   5    -0.652315794714E+03    0.42384E-02   -0.52738E-03 11369   0.198E-01    0.310E-01
RMM:   6    -0.652316021340E+03   -0.22663E-03   -0.33733E-03 12251   0.111E-01    0.381E-01
RMM:   7    -0.652315543544E+03    0.47780E-03   -0.15981E-03 12511   0.899E-02    0.259E-01
RMM:   8    -0.652316094440E+03   -0.55090E-03   -0.10733E-03 11522   0.909E-02    0.442E-01
RMM:   9    -0.652315167555E+03    0.92689E-03   -0.83398E-04 11977   0.840E-02    0.108E-01
RMM:  10    -0.652315200162E+03   -0.32608E-04   -0.47999E-04 10894   0.494E-02    0.126E-01
RMM:  11    -0.652315131188E+03    0.68974E-04   -0.22443E-04 10160   0.321E-02    0.408E-02
RMM:  12    -0.652315148772E+03   -0.17584E-04   -0.11570E-04  8142   0.226E-02    0.653E-02
RMM:  13    -0.652315128294E+03    0.20478E-04   -0.52332E-05  6834   0.202E-02    0.130E-02
WARNING in EDDRMM: call to ZHEGV failed, returncode =   6  3     10
RMM:  14    -0.652315131232E+03   -0.29378E-05   -0.36411E-05  6624   0.127E-02
  42 F= -.65231513E+03 E0= -.65224834E+03  d E =-.564100E-02
 curvature:  -4.13 expect dE=-0.227E-01 dE for cont linesearch -0.193E-03
 trial: gam= 0.96836 g(F)=  0.494E-02 g(S)=  0.557E-03 ort =-0.102E-02 (trialstep = 0.831E+00)
 search vector abs. value=  0.246E-01
 bond charge predicted
       N       E                     dE             d eps       ncg     rms          rms(c)
DAV:   1    -0.652285361037E+03    0.29767E-01   -0.27365E+00  9096   0.643E+00    0.320E-01
RMM:   2    -0.652318934222E+03   -0.33573E-01   -0.34151E-01 13607   0.149E+00    0.678E-01
RMM:   3    -0.652319835178E+03   -0.90096E-03   -0.24478E-02 13455   0.413E-01    0.630E-01
RMM:   4    -0.652319563994E+03    0.27118E-03   -0.42278E-03 12447   0.180E-01    0.536E-01
RMM:   5    -0.652318179593E+03    0.13844E-02   -0.17048E-03 11438   0.108E-01    0.156E-01
RMM:   6    -0.652318150951E+03    0.28642E-04   -0.10247E-03 11479   0.559E-02    0.165E-01
RMM:   7    -0.652318080646E+03    0.70305E-04   -0.41550E-04 10591   0.537E-02    0.138E-01
RMM:   8    -0.652318205769E+03   -0.12512E-03   -0.41007E-04 11323   0.561E-02    0.220E-01
RMM:   9    -0.652317952356E+03    0.25341E-03   -0.21442E-04  9996   0.469E-02    0.431E-02
RMM:  10    -0.652317972209E+03   -0.19853E-04   -0.13835E-04  8783   0.269E-02    0.676E-02
RMM:  11    -0.652317951909E+03    0.20300E-04   -0.60754E-05  6931   0.220E-02    0.234E-02
RMM:  12    -0.652317953177E+03   -0.12673E-05   -0.35741E-05  6720   0.148E-02
  43 F= -.65231795E+03 E0= -.65225120E+03  d E =-.282195E-02
 trial-energy change:   -0.002822  1 .order   -0.002676   -0.003747   -0.001604
 step:   1.2193(harm=  1.4529)  dis= 0.01152  next Energy=  -652.318343 (dE=-0.321E-02)
 bond charge predicted
       N       E                     dE             d eps       ncg     rms          rms(c)
DAV:   1    -0.652311548506E+03    0.64034E-02   -0.59993E-01  9240   0.301E+00    0.150E-01
RMM:   2    -0.652318559211E+03   -0.70107E-02   -0.71697E-02 13523   0.694E-01    0.305E-01
RMM:   3    -0.652318944212E+03   -0.38500E-03   -0.60290E-03 13324   0.223E-01    0.311E-01
RMM:   4    -0.652318843848E+03    0.10036E-03   -0.99319E-04 11133   0.969E-02    0.245E-01
RMM:   5    -0.652318567199E+03    0.27665E-03   -0.44529E-04  9774   0.571E-02    0.763E-02
RMM:   6    -0.652318558628E+03    0.85714E-05   -0.23301E-04  9700   0.284E-02    0.772E-02
RMM:   7    -0.652318541822E+03    0.16805E-04   -0.89289E-05  7949   0.261E-02    0.632E-02
RMM:   8    -0.652318570005E+03   -0.28183E-04   -0.85726E-05  8090   0.279E-02    0.101E-01
RMM:   9    -0.652318517305E+03    0.52700E-04   -0.57806E-05  7359   0.254E-02    0.230E-02
RMM:  10    -0.652318522091E+03   -0.47862E-05   -0.33709E-05  6551   0.173E-02
  44 F= -.65231852E+03 E0= -.65225181E+03  d E =-.339086E-02
 curvature:  -3.40 expect dE=-0.111E-01 dE for cont linesearch -0.119E-03
 ZBRENT: increasing intervall
 opt :   1.9961  next Energy=  -652.318461 (dE=-0.333E-02)
 bond charge predicted
       N       E                     dE             d eps       ncg     rms          rms(c)
DAV:   1    -0.652290204238E+03    0.28313E-01   -0.23956E+00  9192   0.601E+00    0.301E-01
RMM:   2    -0.652318747576E+03   -0.28543E-01   -0.29020E-01 13546   0.139E+00    0.644E-01
RMM:   3    -0.652319802507E+03   -0.10549E-02   -0.23134E-02 13414   0.428E-01    0.603E-01
RMM:   4    -0.652319595015E+03    0.20749E-03   -0.39488E-03 12324   0.183E-01    0.511E-01
RMM:   5    -0.652318361517E+03    0.12335E-02   -0.16712E-03 11286   0.108E-01    0.152E-01
RMM:   6    -0.652318339809E+03    0.21707E-04   -0.93984E-04 11287   0.545E-02    0.161E-01
RMM:   7    -0.652318258692E+03    0.81117E-04   -0.37546E-04 10515   0.499E-02    0.124E-01
RMM:   8    -0.652318389861E+03   -0.13117E-03   -0.34376E-04 10881   0.526E-02    0.209E-01
RMM:   9    -0.652318157221E+03    0.23264E-03   -0.20170E-04 10031   0.455E-02    0.381E-02
RMM:  10    -0.652318174135E+03   -0.16914E-04   -0.12671E-04  8654   0.260E-02    0.617E-02
RMM:  11    -0.652318158416E+03    0.15719E-04   -0.54539E-05  6743   0.216E-02    0.239E-02
RMM:  12    -0.652318158110E+03    0.30642E-06   -0.31792E-05  6547   0.145E-02
  45 F= -.65231816E+03 E0= -.65225155E+03  d E =-.302688E-02
 curvature:   1.75 expect dE= 0.106E-01 dE for cont linesearch  0.260E-03
 ZBRENT: bracketing found
 ZBRENT: interpolating
 opt :   1.4730  next Energy=  -652.318640 (dE=-0.351E-02)
 bond charge predicted
       N       E                     dE             d eps       ncg     rms          rms(c)
DAV:   1    -0.652306424346E+03    0.11734E-01   -0.10903E+00  9360   0.405E+00    0.198E-01
RMM:   2    -0.652318514666E+03   -0.12090E-01   -0.12316E-01 13462   0.924E-01    0.418E-01
RMM:   3    -0.652319363725E+03   -0.84906E-03   -0.11919E-02 13112   0.342E-01    0.413E-01
RMM:   4    -0.652319185888E+03    0.17784E-03   -0.18746E-03 11324   0.143E-01    0.318E-01
RMM:   5    -0.652318727443E+03    0.45844E-03   -0.88599E-04 10606   0.782E-02    0.106E-01
RMM:   6    -0.652318699622E+03    0.27821E-04   -0.39146E-04 10473   0.371E-02    0.102E-01
RMM:   7    -0.652318660733E+03    0.38889E-04   -0.13131E-04  8206   0.353E-02    0.754E-02
RMM:   8    -0.652318720657E+03   -0.59924E-04   -0.16341E-04 10111   0.345E-02    0.143E-01
RMM:   9    -0.652318621222E+03    0.99435E-04   -0.75699E-05  7241   0.314E-02    0.326E-02
RMM:  10    -0.652318620473E+03    0.74858E-06   -0.51734E-05  7003   0.182E-02
  46 F= -.65231862E+03 E0= -.65225193E+03  d E =-.348924E-02
 curvature:  -0.79 expect dE=-0.304E-02 dE for cont linesearch -0.942E-06
 trial: gam= 0.36982 g(F)=  0.331E-02 g(S)=  0.531E-03 ort =-0.171E-03 (trialstep = 0.959E+00)
 search vector abs. value=  0.708E-02
 bond charge predicted
       N       E                     dE             d eps       ncg     rms          rms(c)
DAV:   1    -0.652310289559E+03    0.83317E-02   -0.10205E+00  9264   0.399E+00    0.505E-01
RMM:   2    -0.652358856215E+03   -0.48567E-01   -0.17602E-01 13790   0.109E+00    0.225E+00
RMM:   3    -0.652322857099E+03    0.35999E-01   -0.21291E-02 11210   0.503E-01    0.576E-01
RMM:   4    -0.652322574737E+03    0.28236E-03   -0.70420E-03 12727   0.180E-01    0.493E-01
RMM:   5    -0.652321788864E+03    0.78587E-03   -0.18594E-03 12370   0.109E-01    0.309E-01
RMM:   6    -0.652321302948E+03    0.48592E-03   -0.74482E-04 10679   0.820E-02    0.148E-01
RMM:   7    -0.652321202159E+03    0.10079E-03   -0.68667E-04 13026   0.548E-02    0.105E-01
RMM:   8    -0.652321317026E+03   -0.11487E-03   -0.31666E-04 10541   0.569E-02    0.185E-01
RMM:   9    -0.652321120268E+03    0.19676E-03   -0.16503E-04  9487   0.454E-02    0.487E-02
RMM:  10    -0.652321137850E+03   -0.17582E-04   -0.10472E-04  8360   0.247E-02    0.683E-02
RMM:  11    -0.652321120655E+03    0.17194E-04   -0.47128E-05  6974   0.201E-02    0.140E-02
RMM:  12    -0.652321125627E+03   -0.49721E-05   -0.29687E-05  6232   0.132E-02
  47 F= -.65232113E+03 E0= -.65225443E+03  d E =-.250515E-02
 trial-energy change:   -0.002505  1 .order   -0.002464   -0.003625   -0.001303
 step:   1.4243(harm=  1.4979)  dis= 0.00612  next Energy=  -652.321446 (dE=-0.283E-02)
 bond charge predicted
       N       E                     dE             d eps       ncg     rms          rms(c)
DAV:   1    -0.652318930359E+03    0.21903E-02   -0.24016E-01  9576   0.193E+00    0.248E-01
RMM:   2    -0.652330473619E+03   -0.11543E-01   -0.41312E-02 13657   0.529E-01    0.110E+00
RMM:   3    -0.652321904055E+03    0.85696E-02   -0.51011E-03 10727   0.250E-01    0.292E-01
RMM:   4    -0.652321813957E+03    0.90098E-04   -0.17408E-03 11735   0.950E-02    0.237E-01
RMM:   5    -0.652321641165E+03    0.17279E-03   -0.46234E-04 10969   0.550E-02    0.151E-01
RMM:   6    -0.652321528740E+03    0.11243E-03   -0.18673E-04  8352   0.422E-02    0.718E-02
RMM:   7    -0.652321509976E+03    0.18764E-04   -0.16671E-04 10416   0.280E-02    0.515E-02
RMM:   8    -0.652321537848E+03   -0.27872E-04   -0.73516E-05  7189   0.319E-02    0.891E-02
RMM:   9    -0.652321495673E+03    0.42175E-04   -0.41682E-05  6318   0.260E-02    0.266E-02
RMM:  10    -0.652321499203E+03   -0.35299E-05   -0.27295E-05  6208   0.183E-02
  48 F= -.65232150E+03 E0= -.65225480E+03  d E =-.287873E-02
 curvature:  -1.38 expect dE=-0.750E-02 dE for cont linesearch -0.106E-04
 trial: gam= 1.37580 g(F)=  0.202E-02 g(S)=  0.343E-02 ort = 0.233E-03 (trialstep = 0.382E+00)
 search vector abs. value=  0.195E-01
 bond charge predicted
       N       E                     dE             d eps       ncg     rms          rms(c)
DAV:   1    -0.652318541698E+03    0.29540E-02   -0.44791E-01  9360   0.270E+00    0.363E-01
RMM:   2    -0.652345168727E+03   -0.26627E-01   -0.79002E-02 13724   0.736E-01    0.182E+00
RMM:   3    -0.652325264126E+03    0.19905E-01   -0.10859E-02 11199   0.355E-01    0.643E-01
RMM:   4    -0.652323698052E+03    0.15661E-02   -0.37072E-03 11965   0.149E-01    0.243E-01
RMM:   5    -0.652323504966E+03    0.19309E-03   -0.11557E-03 12302   0.730E-02    0.185E-01
RMM:   6    -0.652323331906E+03    0.17306E-03   -0.32526E-04  9935   0.549E-02    0.101E-01
RMM:   7    -0.652323277846E+03    0.54060E-04   -0.28921E-04 11822   0.364E-02    0.668E-02
RMM:   8    -0.652323329483E+03   -0.51637E-04   -0.13119E-04  8254   0.397E-02    0.127E-01
RMM:   9    -0.652323242810E+03    0.86673E-04   -0.68290E-05  7183   0.289E-02    0.426E-02
[...]
RMM:   6    -0.652332185158E+03    0.81119E-05   -0.24401E-05  5920   0.163E-02
  76 F= -.65233219E+03 E0= -.65226603E+03  d E =-.166360E-03
 curvature:   2.21 expect dE= 0.746E-03 dE for cont linesearch  0.475E-05
 ZBRENT: increasing intervall
 opt :   0.7321  next Energy=  -652.332200 (dE=-0.181E-03)
 bond charge predicted
       N       E                     dE             d eps       ncg     rms          rms(c)
DAV:   1    -0.652328742358E+03    0.34509E-02   -0.18650E-01  9168   0.225E+00    0.122E-01
RMM:   2    -0.652333324827E+03   -0.45825E-02   -0.35100E-02 13455   0.440E-01    0.483E-01
RMM:   3    -0.652332169579E+03    0.11552E-02   -0.23896E-03 11224   0.160E-01    0.150E-01
RMM:   4    -0.652332297649E+03   -0.12807E-03   -0.71304E-04 10407   0.692E-02    0.202E-01
RMM:   5    -0.652332132673E+03    0.16498E-03   -0.23476E-04  8588   0.396E-02    0.913E-02
RMM:   6    -0.652332095784E+03    0.36888E-04   -0.99360E-05  7013   0.272E-02    0.451E-02
RMM:   7    -0.652332113918E+03   -0.18134E-04   -0.11190E-04  9063   0.268E-02    0.788E-02
RMM:   8    -0.652332086376E+03    0.27543E-04   -0.41007E-05  6528   0.224E-02    0.345E-02
RMM:   9    -0.652332084360E+03    0.20154E-05   -0.24634E-05  6141   0.154E-02
  77 F= -.65233208E+03 E0= -.65226601E+03  d E =-.655617E-04
 curvature:  -6.92 expect dE=-0.482E-02 dE for cont linesearch -0.297E-03
 ZBRENT: bracketing found
 ZBRENT: interpolating
 opt :   0.4399  next Energy=  -652.332189 (dE=-0.171E-03)
 bond charge predicted
       N       E                     dE             d eps       ncg     rms          rms(c)
DAV:   1    -0.652329926071E+03    0.21603E-02   -0.12467E-01  9120   0.184E+00    0.951E-02
RMM:   2    -0.652332811818E+03   -0.28857E-02   -0.24108E-02 13528   0.358E-01    0.338E-01
RMM:   3    -0.652332260915E+03    0.55090E-03   -0.13011E-03 11013   0.114E-01    0.113E-01
RMM:   4    -0.652332313428E+03   -0.52513E-04   -0.36159E-04  9593   0.489E-02    0.140E-01
RMM:   5    -0.652332210577E+03    0.10285E-03   -0.96746E-05  6654   0.335E-02    0.616E-02
RMM:   6    -0.652332203099E+03    0.74785E-05   -0.45188E-05  6230   0.205E-02
  78 F= -.65233220E+03 E0= -.65226608E+03  d E =-.184300E-03
 curvature:  -0.10 expect dE=-0.455E-04 dE for cont linesearch -0.953E-07
 trial: gam= 0.31215 g(F)=  0.355E-03 g(S)=  0.942E-04 ort =-0.879E-04 (trialstep = 0.173E+00)
 search vector abs. value=  0.119E-02
 bond charge predicted
       N       E                     dE             d eps       ncg     rms          rms(c)
DAV:   1    -0.652332132079E+03    0.78498E-04   -0.74058E-03 12000   0.489E-01    0.856E-02
RMM:   2    -0.652334738374E+03   -0.26063E-02   -0.27213E-03 10692   0.140E-01    0.708E-01
RMM:   3    -0.652332306568E+03    0.24318E-02   -0.72528E-04  8573   0.103E-01    0.101E-01
RMM:   4    -0.652332247844E+03    0.58724E-04   -0.12221E-04  7625   0.328E-02    0.389E-02
RMM:   5    -0.652332246979E+03    0.86449E-06   -0.25304E-05  5865   0.161E-02
  79 F= -.65233225E+03 E0= -.65226611E+03  d E =-.438805E-04
 trial-energy change:   -0.000044  1 .order   -0.000055   -0.000073   -0.000036
 step:   0.3447(harm=  0.3447)  dis= 0.00069  next Energy=  -652.332276 (dE=-0.727E-04)
 bond charge predicted
       N       E                     dE             d eps       ncg     rms          rms(c)
DAV:   1    -0.652332124428E+03    0.12342E-03   -0.70218E-03 10560   0.482E-01    0.308E-02
RMM:   2    -0.652332454141E+03   -0.32971E-03   -0.17168E-03 12565   0.906E-02    0.191E-01
RMM:   3    -0.652332286429E+03    0.16771E-03   -0.13072E-04  6762   0.455E-02    0.313E-02
RMM:   4    -0.652332290856E+03   -0.44272E-05   -0.31898E-05  5995   0.202E-02
  80 F= -.65233229E+03 E0= -.65226617E+03  d E =-.877575E-04
 curvature:  -0.49 expect dE=-0.114E-03 dE for cont linesearch -0.710E-05
 ZBRENT: increasing intervall
 opt :   0.6877  next Energy=  -652.332309 (dE=-0.106E-03)
 bond charge predicted
       N       E                     dE             d eps       ncg     rms          rms(c)
DAV:   1    -0.652331676086E+03    0.61034E-03   -0.27746E-02  9336   0.958E-01    0.499E-02
RMM:   2    -0.652332551530E+03   -0.87544E-03   -0.68781E-03 13083   0.184E-01    0.212E-01
RMM:   3    -0.652332367767E+03    0.18376E-03   -0.45235E-04  9379   0.662E-02    0.786E-02
RMM:   4    -0.652332364753E+03    0.30134E-05   -0.10919E-04  7026   0.320E-02    0.587E-02
RMM:   5    -0.652332345006E+03    0.19747E-04   -0.33152E-05  5953   0.205E-02    0.226E-02
RMM:   6    -0.652332346927E+03   -0.19206E-05   -0.13644E-05  5577   0.129E-02
  81 F= -.65233235E+03 E0= -.65226626E+03  d E =-.143828E-03
 curvature:  -1.27 expect dE=-0.329E-03 dE for cont linesearch -0.981E-05
 ZBRENT: increasing intervall
 opt :   1.3739  next Energy=  -652.332388 (dE=-0.185E-03)
 bond charge predicted
       N       E                     dE             d eps       ncg     rms          rms(c)
DAV:   1    -0.652329899480E+03    0.24455E-02   -0.11198E-01  9552   0.191E+00    0.887E-02
RMM:   2    -0.652332739660E+03   -0.28402E-02   -0.24332E-02 13126   0.350E-01    0.323E-01
RMM:   3    -0.652332384817E+03    0.35484E-03   -0.20514E-03 10952   0.135E-01    0.108E-01
RMM:   4    -0.652332451804E+03   -0.66987E-04   -0.40666E-04  9500   0.568E-02    0.132E-01
RMM:   5    -0.652332376207E+03    0.75597E-04   -0.14138E-04  6651   0.334E-02    0.668E-02
RMM:   6    -0.652332364842E+03    0.11366E-04   -0.51953E-05  6496   0.196E-02    0.428E-02
RMM:   7    -0.652332364623E+03    0.21890E-06   -0.29229E-05  6067   0.164E-02
  82 F= -.65233236E+03 E0= -.65226633E+03  d E =-.161524E-03
 curvature:  -5.36 expect dE=-0.203E-02 dE for cont linesearch -0.656E-05
 trial: gam= 0.83313 g(F)=  0.273E-03 g(S)=  0.105E-03 ort =-0.382E-04 (trialstep = 0.413E+00)
 search vector abs. value=  0.114E-02
 bond charge predicted
       N       E                     dE             d eps       ncg     rms          rms(c)
DAV:   1    -0.652331557323E+03    0.80752E-03   -0.38961E-02  9576   0.110E+00    0.782E-02
RMM:   2    -0.652333345910E+03   -0.17886E-02   -0.10017E-02 13562   0.217E-01    0.398E-01
RMM:   3    -0.652332524290E+03    0.82162E-03   -0.83909E-04  9803   0.993E-02    0.108E-01
RMM:   4    -0.652332519032E+03    0.52583E-05   -0.23649E-04  8943   0.426E-02    0.931E-02
RMM:   5    -0.652332491159E+03    0.27873E-04   -0.66207E-05  6217   0.243E-02    0.592E-02
RMM:   6    -0.652332477243E+03    0.13917E-04   -0.25232E-05  5872   0.201E-02    0.324E-02
RMM:   7    -0.652332481175E+03   -0.39329E-05   -0.17694E-05  5678   0.141E-02
  83 F= -.65233248E+03 E0= -.65226648E+03  d E =-.116553E-03
 trial-energy change:   -0.000117  1 .order   -0.000118   -0.000143   -0.000093
 step:   1.1685(harm=  1.1685)  dis= 0.00217  next Energy=  -652.332567 (dE=-0.203E-03)
 bond charge predicted
       N       E                     dE             d eps       ncg     rms          rms(c)
DAV:   1    -0.652329522126E+03    0.29551E-02   -0.13012E-01  9600   0.202E+00    0.156E-01
RMM:   2    -0.652335484728E+03   -0.59626E-02   -0.33018E-02 13621   0.399E-01    0.689E-01
RMM:   3    -0.652332771333E+03    0.27134E-02   -0.33922E-03 10385   0.200E-01    0.230E-01
RMM:   4    -0.652332676512E+03    0.94821E-04   -0.88882E-04 10510   0.776E-02    0.150E-01
RMM:   5    -0.652332625056E+03    0.51456E-04   -0.28966E-04  9062   0.398E-02    0.123E-01
RMM:   6    -0.652332562325E+03    0.62731E-04   -0.65525E-05  6355   0.281E-02    0.546E-02
RMM:   7    -0.652332571676E+03   -0.93505E-05   -0.71562E-05  7243   0.225E-02
  84 F= -.65233257E+03 E0= -.65226665E+03  d E =-.207053E-03
 curvature:  -1.93 expect dE=-0.690E-03 dE for cont linesearch -0.176E-04
 ZBRENT: increasing intervall
 opt :   2.6791  next Energy=  -652.332542 (dE=-0.177E-03)
 bond charge predicted
       N       E                     dE             d eps       ncg     rms          rms(c)
DAV:   1    -0.652320234542E+03    0.12328E-01   -0.52192E-01  9408   0.403E+00    0.296E-01
RMM:   2    -0.652341838845E+03   -0.21604E-01   -0.12601E-01 13560   0.787E-01    0.128E+00
RMM:   3    -0.652332996656E+03    0.88422E-02   -0.14381E-02 10690   0.418E-01    0.455E-01
RMM:   4    -0.652332683422E+03    0.31323E-03   -0.35565E-03 11395   0.156E-01    0.291E-01
RMM:   5    -0.652332453834E+03    0.22959E-03   -0.12099E-03 11008   0.794E-02    0.225E-01
RMM:   6    -0.652332252183E+03    0.20165E-03   -0.26773E-04  8521   0.500E-02    0.101E-01
RMM:   7    -0.652332290397E+03   -0.38214E-04   -0.37216E-04 12661   0.406E-02    0.129E-01
RMM:   8    -0.652332226798E+03    0.63599E-04   -0.14491E-04  8313   0.446E-02    0.802E-02
RMM:   9    -0.652332189509E+03    0.37289E-04   -0.11298E-04  9424   0.249E-02    0.279E-02
RMM:  10    -0.652332195284E+03   -0.57748E-05   -0.32232E-05  6244   0.186E-02
  85 F= -.65233220E+03 E0= -.65226641E+03  d E =0.169339E-03
 curvature:   3.30 expect dE= 0.844E-02 dE for cont linesearch  0.591E-03
 ZBRENT: bracketing found
 ZBRENT: interpolating
 opt :   1.4464  next Energy=  -652.332586 (dE=-0.221E-03)
 bond charge predicted
       N       E                     dE             d eps       ncg     rms          rms(c)
DAV:   1    -0.652324203683E+03    0.79858E-02   -0.34513E-01  9168   0.330E+00    0.233E-01
RMM:   2    -0.652338135764E+03   -0.13932E-01   -0.90497E-02 13846   0.636E-01    0.936E-01
RMM:   3    -0.652333066893E+03    0.50689E-02   -0.68998E-03 11002   0.269E-01    0.328E-01
RMM:   4    -0.652332995300E+03    0.71593E-04   -0.18390E-03 10967   0.106E-01    0.268E-01
RMM:   5    -0.652332735931E+03    0.25937E-03   -0.56785E-04 10322   0.619E-02    0.175E-01
RMM:   6    -0.652332603632E+03    0.13230E-03   -0.17126E-04  7772   0.420E-02    0.830E-02
RMM:   7    -0.652332654500E+03   -0.50867E-04   -0.18002E-04  9694   0.338E-02    0.135E-01
RMM:   8    -0.652332569528E+03    0.84972E-04   -0.10173E-04  7611   0.375E-02    0.596E-02
RMM:   9    -0.652332551222E+03    0.18305E-04   -0.84493E-05  7951   0.254E-02    0.471E-02
RMM:  10    -0.652332540169E+03    0.11054E-04   -0.23118E-05  5764   0.196E-02    0.193E-02
RMM:  11    -0.652332538421E+03    0.17476E-05   -0.12134E-05  5504   0.146E-02
  86 F= -.65233254E+03 E0= -.65226664E+03  d E =-.173798E-03
 curvature:  -0.08 expect dE=-0.535E-04 dE for cont linesearch -0.561E-06
 ZBRENT: interpolating
 opt :   1.3161  next Energy=  -652.332544 (dE=-0.180E-03)
 bond charge predicted
       N       E                     dE             d eps       ncg     rms          rms(c)
DAV:   1    -0.652332451989E+03    0.88179E-04   -0.38303E-03 10272   0.351E-01    0.282E-02
RMM:   2    -0.652332664138E+03   -0.21215E-03   -0.10945E-03 12257   0.690E-02    0.136E-01
RMM:   3    -0.652332552867E+03    0.11127E-03   -0.77440E-05  6302   0.369E-02    0.406E-02
RMM:   4    -0.652332550103E+03    0.27639E-05   -0.23145E-05  5825   0.172E-02
  87 F= -.65233255E+03 E0= -.65226663E+03  d E =-.185480E-03
 curvature:  -0.83 expect dE=-0.656E-03 dE for cont linesearch -0.310E-07
 trial: gam= 2.01919 g(F)=  0.324E-03 g(S)=  0.469E-03 ort = 0.655E-05 (trialstep = 0.124E+00)
 search vector abs. value=  0.548E-02
 bond charge predicted
       N       E                     dE             d eps       ncg     rms          rms(c)
DAV:   1    -0.652332203849E+03    0.34902E-03   -0.17448E-02  9576   0.767E-01    0.543E-02
RMM:   2    -0.652332961545E+03   -0.75770E-03   -0.42323E-03 12871   0.146E-01    0.250E-01
RMM:   3    -0.652332638711E+03    0.32283E-03   -0.48895E-04  8385   0.838E-02    0.900E-02
RMM:   4    -0.652332623373E+03    0.15338E-04   -0.11355E-04  7113   0.362E-02    0.520E-02
RMM:   5    -0.652332617191E+03    0.61812E-05   -0.40765E-05  5922   0.192E-02
  88 F= -.65233262E+03 E0= -.65226672E+03  d E =-.670886E-04
 trial-energy change:   -0.000067  1 .order   -0.000071   -0.000100   -0.000042
 step:   0.2126(harm=  0.2126)  dis= 0.00087  next Energy=  -652.332636 (dE=-0.857E-04)
 bond charge predicted
       N       E                     dE             d eps       ncg     rms          rms(c)
DAV:   1    -0.652332441750E+03    0.18162E-03   -0.92080E-03 10416   0.551E-01    0.372E-02
RMM:   2    -0.652332795016E+03   -0.35327E-03   -0.21969E-03 12470   0.102E-01    0.160E-01
RMM:   3    -0.652332649155E+03    0.14586E-03   -0.17419E-04  7102   0.497E-02    0.471E-02
RMM:   4    -0.652332648012E+03    0.11433E-05   -0.45377E-05  6214   0.232E-02
  89 F= -.65233265E+03 E0= -.65226674E+03  d E =-.979092E-04
 curvature:  -0.72 expect dE=-0.670E-03 dE for cont linesearch -0.481E-05
 ZBRENT: increasing intervall
 opt :   0.3901  next Energy=  -652.332656 (dE=-0.106E-03)
 bond charge predicted
       N       E                     dE             d eps       ncg     rms          rms(c)
DAV:   1    -0.652331803318E+03    0.84584E-03   -0.36006E-02  9264   0.110E+00    0.685E-02
RMM:   2    -0.652333144580E+03   -0.13413E-02   -0.90183E-03 13272   0.205E-01    0.294E-01
RMM:   3    -0.652332739582E+03    0.40500E-03   -0.78666E-04  9417   0.953E-02    0.123E-01
RMM:   4    -0.652332709333E+03    0.30250E-04   -0.20443E-04  8213   0.434E-02    0.692E-02
RMM:   5    -0.652332684581E+03    0.24751E-04   -0.66787E-05  6232   0.235E-02    0.299E-02
RMM:   6    -0.652332688054E+03   -0.34731E-05   -0.18324E-05  5708   0.147E-02
  90 F= -.65233269E+03 E0= -.65226680E+03  d E =-.137952E-03
 curvature:  -1.21 expect dE=-0.486E-03 dE for cont linesearch -0.425E-05
 ZBRENT: increasing intervall
 opt :   0.7451  next Energy=  -652.332719 (dE=-0.169E-03)
 bond charge predicted
       N       E                     dE             d eps       ncg     rms          rms(c)
DAV:   1    -0.652329139600E+03    0.35450E-02   -0.14298E-01  9216   0.220E+00    0.130E-01
RMM:   2    -0.652333896022E+03   -0.47564E-02   -0.35764E-02 13529   0.402E-01    0.445E-01
RMM:   3    -0.652332693291E+03    0.12027E-02   -0.28571E-03 10461   0.172E-01    0.123E-01
RMM:   4    -0.652332849377E+03   -0.15609E-03   -0.71663E-04 10340   0.678E-02    0.193E-01
RMM:   5    -0.652332685220E+03    0.16416E-03   -0.20836E-04  7351   0.401E-02    0.770E-02
RMM:   6    -0.652332670871E+03    0.14349E-04   -0.88020E-05  6824   0.234E-02    0.540E-02
RMM:   7    -0.652332695941E+03   -0.25070E-04   -0.68351E-05  7348   0.257E-02    0.949E-02
RMM:   8    -0.652332652291E+03    0.43650E-04   -0.39828E-05  6278   0.227E-02    0.286E-02
RMM:   9    -0.652332654101E+03   -0.18101E-05   -0.23356E-05  5819   0.172E-02
  91 F= -.65233265E+03 E0= -.65226681E+03  d E =-.103998E-03
 curvature:  -8.74 expect dE=-0.546E-02 dE for cont linesearch -0.237E-04
 trial: gam= 0.76739 g(F)=  0.450E-03 g(S)=  0.174E-03 ort =-0.122E-03 (trialstep = 0.248E+00)
 search vector abs. value=  0.367E-02
 bond charge predicted
       N       E                     dE             d eps       ncg     rms          rms(c)
DAV:   1    -0.652331560985E+03    0.10913E-02   -0.50187E-02 10032   0.132E+00    0.558E-02
RMM:   2    -0.652332806331E+03   -0.12453E-02   -0.11820E-02 12981   0.219E-01    0.130E-01
RMM:   3    -0.652332750015E+03    0.56315E-04   -0.73732E-04 10055   0.778E-02    0.740E-02
RMM:   4    -0.652332779813E+03   -0.29798E-04   -0.13129E-04  7005   0.351E-02    0.976E-02
RMM:   5    -0.652332737690E+03    0.42123E-04   -0.51616E-05  6012   0.251E-02    0.306E-02
RMM:   6    -0.652332737709E+03   -0.18663E-07   -0.17709E-05  5792   0.119E-02
  92 F= -.65233274E+03 E0= -.65226692E+03  d E =-.836079E-04
 trial-energy change:   -0.000084  1 .order   -0.000093   -0.000132   -0.000055
 step:   0.4258(harm=  0.4258)  dis= 0.00121  next Energy=  -652.332767 (dE=-0.113E-03)
 bond charge predicted
       N       E                     dE             d eps       ncg     rms          rms(c)
DAV:   1    -0.652332155852E+03    0.58184E-03   -0.25556E-02  9696   0.943E-01    0.474E-02
RMM:   2    -0.652332992095E+03   -0.83624E-03   -0.60777E-03 12592   0.166E-01    0.213E-01
RMM:   3    -0.652332781846E+03    0.21025E-03   -0.54712E-04  8376   0.812E-02    0.586E-02
RMM:   4    -0.652332800256E+03   -0.18410E-04   -0.12378E-04  7327   0.336E-02    0.705E-02
RMM:   5    -0.652332783614E+03    0.16642E-04   -0.43517E-05  5951   0.213E-02    0.320E-02
RMM:   6    -0.652332780690E+03    0.29239E-05   -0.11852E-05  5543   0.125E-02
  93 F= -.65233278E+03 E0= -.65226698E+03  d E =-.126589E-03
 curvature:  -1.47 expect dE=-0.588E-03 dE for cont linesearch -0.323E-05
 ZBRENT: increasing intervall
 opt :   0.7811  next Energy=  -652.332766 (dE=-0.112E-03)
 bond charge predicted
       N       E                     dE             d eps       ncg     rms          rms(c)
DAV:   1    -0.652330450449E+03    0.23332E-02   -0.10358E-01  9888   0.189E+00    0.863E-02
RMM:   2    -0.652333370705E+03   -0.29203E-02   -0.22453E-02 12891   0.325E-01    0.383E-01
RMM:   3    -0.652332818391E+03    0.55231E-03   -0.23723E-03 10155   0.153E-01    0.929E-02
RMM:   4    -0.652332900377E+03   -0.81986E-04   -0.45313E-04  8739   0.593E-02    0.126E-01
RMM:   5    -0.652332843308E+03    0.57069E-04   -0.17061E-04  6429   0.328E-02    0.619E-02
RMM:   6    -0.652332833780E+03    0.95281E-05   -0.44784E-05  6265   0.189E-02
  94 F= -.65233283E+03 E0= -.65226708E+03  d E =-.179679E-03
 curvature:   6.77 expect dE= 0.255E-02 dE for cont linesearch  0.432E-05
 trial: gam= 0.05197 g(F)=  0.327E-03 g(S)=  0.497E-04 ort =-0.484E-04 (trialstep = 0.355E+00)
 search vector abs. value=  0.382E-03
 bond charge predicted
       N       E                     dE             d eps       ncg     rms          rms(c)
DAV:   1    -0.652332873410E+03   -0.30103E-04   -0.75949E-03 10704   0.406E-01    0.645E-02
RMM:   2    -0.652333903595E+03   -0.10302E-02   -0.16954E-03 11797   0.114E-01    0.419E-01
RMM:   3    -0.652332966591E+03    0.93700E-03   -0.32166E-04  8644   0.705E-02    0.672E-02
RMM:   4    -0.652332958299E+03    0.82921E-05   -0.80014E-05  7403   0.295E-02
  95 F= -.65233296E+03 E0= -.65226722E+03  d E =-.124519E-03
 ZBRENT: can't locate minimum, use default step
 trial-energy change:   -0.000125  1 .order   -0.000117   -0.000133   -0.000101
 step:   1.4189(harm=  1.4917)  dis= 0.00115  next Energy=  -652.333113 (dE=-0.279E-03)
 bond charge predicted
       N       E                     dE             d eps       ncg     rms          rms(c)
DAV:   1    -0.652332289467E+03    0.67712E-03   -0.67444E-02  9264   0.121E+00    0.130E-01
RMM:   2    -0.652335031195E+03   -0.27417E-02   -0.12165E-02 13666   0.279E-01    0.531E-01
RMM:   3    -0.652333213906E+03    0.18173E-02   -0.11832E-03 10578   0.123E-01    0.178E-01
RMM:   4    -0.652333163997E+03    0.49909E-04   -0.46668E-04 10418   0.542E-02    0.140E-01
RMM:   5    -0.652333107161E+03    0.56836E-04   -0.17527E-04  9552   0.362E-02    0.116E-01
RMM:   6    -0.652333050448E+03    0.56713E-04   -0.68495E-05  6522   0.307E-02    0.644E-02
RMM:   7    -0.652333052749E+03   -0.23015E-05   -0.75045E-05  7243   0.246E-02
  96 F= -.65233305E+03 E0= -.65226731E+03  d E =-.218970E-03
 curvature:  -0.76 expect dE=-0.148E-03 dE for cont linesearch -0.240E-06
 trial: gam= 0.55934 g(F)=  0.172E-03 g(S)=  0.232E-04 ort =-0.110E-04 (trialstep = 0.568E+00)
 search vector abs. value=  0.302E-03
 bond charge predicted
       N       E                     dE             d eps       ncg     rms          rms(c)
DAV:   1    -0.652332843872E+03    0.20658E-03   -0.16817E-02 10488   0.663E-01    0.445E-02
RMM:   2    -0.652333391283E+03   -0.54741E-03   -0.29873E-03 13231   0.132E-01    0.212E-01
RMM:   3    -0.652333113106E+03    0.27818E-03   -0.26008E-04  8163   0.658E-02    0.410E-02
RMM:   4    -0.652333119764E+03   -0.66585E-05   -0.89691E-05  7682   0.263E-02
  97 F= -.65233312E+03 E0= -.65226735E+03  d E =-.670149E-04
 trial-energy change:   -0.000067  1 .order   -0.000074   -0.000107   -0.000042
 step:   0.9300(harm=  0.9300)  dis= 0.00081  next Energy=  -652.333141 (dE=-0.878E-04)
 reached required accuracy - stopping structural energy minimisation
