<?xml version="1.0" encoding="ISO-8859-1"?>
<modeling>
 <generator>
  <i name="program" type="string">vasp </i>
  <i name="version" type="string">5.4.4.18Apr17-6-g9f103f2a35  </i>
  <i name="subversion" type="string">(build Oct 18 2021 20:38:43) complex            parallel </i>
  <i name="platform" type="string">LinuxIFC </i>
  <i name="date" type="string">2024 06 18 </i>
  <i name="time" type="string">15:45:18 </i>
 </generator>
 <incar>
  <i type="string" name="SYSTEM">HECN</i>
  <i type="int" name="ISTART">     0</i>
  <i type="string" name="PREC">normal</i>
  <i type="string" name="ALGO">Fast</i>
  <i type="int" name="ICHARG">     2</i>
  <i type="int" name="NELM">    60</i>
  <i type="int" name="IBRION">     2</i>
  <i name="EDIFF">      0.00001000</i>
  <i name="EDIFFG">     -0.01000000</i>
  <i type="int" name="NSW">   100</i>
  <i type="int" name="ISIF">     3</i>
  <i name="ENCUT">    400.00000000</i>
  <i name="POTIM">      0.50000000</i>
  <i type="logical" name="LREAL"> F  </i>
  <i type="int" name="ISMEAR">     0</i>
  <i name="SIGMA">      0.10000000</i>
  <i type="logical" name="LWAVE"> F  </i>
  <i type="logical" name="LCHARG"> F  </i>
  <v type="int" name="KPOINT_BSE">    -1     0     0     0</v>
  <i type="int" name="NELM">    60</i>
 </incar>
 <structure name="primitive_cell" >
  <crystal>
   <varray name="basis" >
    <v>       8.93249989       0.00000000       0.00000000 </v>
    <v>       0.00575300       9.05559834       0.00000000 </v>
    <v>       0.03210180      -0.01574346       8.93712807 </v>
   </varray>
   <i name="volume">    722.91652451 </i>
   <varray name="rec_basis" >
    <v>       0.11195074      -0.00007112      -0.00040225 </v>
    <v>       0.00000000       0.11042893       0.00019453 </v>
    <v>       0.00000000       0.00000000       0.11189277 </v>
   </varray>
  </crystal>
  <varray name="positions" >
   <v>      -0.00311999      -0.00795003      -0.00075998 </v>
   <v>      -0.25232999      -0.00252000       0.01202000 </v>
   <v>      -0.00162995      -0.25686004       0.00460000 </v>
   <v>      -0.00280000      -0.00228008       0.25899999 </v>
   <v>       0.00281000       0.25024000       0.00130000 </v>
   <v>      -0.01103011       0.00202000      -0.26291001 </v>
   <v>       0.26146999      -0.00015998      -0.00704004 </v>
   <v>      -0.00135002      -0.22426001       0.26102000 </v>
   <v>      -0.25720997      -0.02130006      -0.23549005 </v>
   <v>       0.23780002       0.01082000      -0.25392002 </v>
   <v>      -0.24282000      -0.25897003       0.01100000 </v>
   <v>       0.24762001      -0.25026001      -0.00025994 </v>
   <v>      -0.00485996      -0.25507996      -0.25488003 </v>
   <v>      -0.24281000       0.25603001      -0.00408003 </v>
   <v>       0.25398003      -0.00285005       0.24912000 </v>
   <v>       0.24788999       0.24839000      -0.00342003 </v>
   <v>      -0.00562996       0.23617001       0.26379999 </v>
   <v>      -0.25120996      -0.01212001       0.26967001 </v>
   <v>       0.00201000       0.25541000      -0.26105999 </v>
   <v>       0.24177002      -0.24659003      -0.24981998 </v>
   <v>      -0.24963995      -0.25112000      -0.25243996 </v>
   <v>      -0.24255004       0.24437997      -0.25103001 </v>
   <v>       0.25133999      -0.25041998       0.24910999 </v>
   <v>      -0.24367000      -0.26108997       0.25767000 </v>
   <v>      -0.24686002       0.24616999       0.25492002 </v>
   <v>       0.24982001       0.24942998       0.24825000 </v>
   <v>       0.24900999       0.25315000      -0.25146000 </v>
   <v>      -0.48411003       0.01358000      -0.01924992 </v>
   <v>      -0.00158006      -0.49023002      -0.01386996 </v>
   <v>       0.02362000      -0.00216999       0.49557002 </v>
   <v>      -0.49480995      -0.23869001       0.00855000 </v>
   <v>      -0.49285006      -0.00023001       0.24673000 </v>
   <v>      -0.24160996      -0.49684002       0.00288000 </v>
   <v>      -0.00999997      -0.23784997       0.49746000 </v>
   <v>      -0.00948001       0.48088003       0.24100999 </v>
   <v>       0.24446000      -0.00176004      -0.49712002 </v>
   <v>      -0.26367999       0.00417000      -0.48937000 </v>
   <v>       0.24328000      -0.49927003      -0.00489006 </v>
   <v>      -0.49572003       0.24673000       0.00262000 </v>
   <v>      -0.00796004      -0.49944001      -0.24861998 </v>
   <v>      -0.00195991       0.24229999      -0.49871997 </v>
   <v>      -0.49991002       0.00061000      -0.26528002 </v>
   <v>      -0.26123997      -0.47171998      -0.26185001 </v>
   <v>       0.49950005      -0.24518001      -0.25182996 </v>
   <v>       0.24457999      -0.24951001       0.49983999 </v>
   <v>      -0.24599997      -0.27062001       0.49116997 </v>
   <v>      -0.49520997       0.24631001      -0.25289998 </v>
   <v>       0.24803003      -0.49835000       0.24955001 </v>
   <v>      -0.26448999      -0.48531996       0.26666001 </v>
   <v>      -0.49167000       0.25676999       0.25376001 </v>
   <v>      -0.49620997      -0.26073003       0.25905001 </v>
   <v>      -0.24692999       0.26163001      -0.49466998 </v>
   <v>       0.25272001       0.24823001      -0.49984997 </v>
   <v>       0.25679999       0.49462002      -0.25454998 </v>
   <v>       0.47957999      -0.01691999       0.49717999 </v>
   <v>      -0.49498994       0.49745998      -0.00165997 </v>
   <v>      -0.00572008      -0.49550001       0.49779000 </v>
   <v>      -0.49436004       0.23264998       0.49544997 </v>
   <v>      -0.49424994      -0.25041998       0.49720000 </v>
   <v>      -0.49299998      -0.49666998       0.25878999 </v>
   <v>      -0.49498997      -0.49782002      -0.26087997 </v>
   <v>      -0.25963999      -0.49803000      -0.49932997 </v>
   <v>       0.25841001      -0.49937998      -0.49870999 </v>
   <v>      -0.49461000      -0.47166995       0.49917999 </v>
  </varray>
 </structure>
 <varray name="primitive_index" >
  <v type="int" >        1 </v>
  <v type="int" >       25 </v>
  <v type="int" >       38 </v>
  <v type="int" >       34 </v>
  <v type="int" >       23 </v>
  <v type="int" >       29 </v>
  <v type="int" >       22 </v>
  <v type="int" >       59 </v>
  <v type="int" >       58 </v>
  <v type="int" >       56 </v>
  <v type="int" >        9 </v>
  <v type="int" >       18 </v>
  <v type="int" >       12 </v>
  <v type="int" >       17 </v>
  <v type="int" >        2 </v>
  <v type="int" >       14 </v>
  <v type="int" >        8 </v>
  <v type="int" >       16 </v>
  <v type="int" >       10 </v>
  <v type="int" >       45 </v>
  <v type="int" >       49 </v>
  <v type="int" >       30 </v>
  <v type="int" >       36 </v>
  <v type="int" >       39 </v>
  <v type="int" >       24 </v>
  <v type="int" >       21 </v>
  <v type="int" >       42 </v>
  <v type="int" >       53 </v>
  <v type="int" >       54 </v>
  <v type="int" >       61 </v>
  <v type="int" >       28 </v>
  <v type="int" >       26 </v>
  <v type="int" >       40 </v>
  <v type="int" >       47 </v>
  <v type="int" >       27 </v>
  <v type="int" >       43 </v>
  <v type="int" >       31 </v>
  <v type="int" >       37 </v>
  <v type="int" >       35 </v>
  <v type="int" >       48 </v>
  <v type="int" >       44 </v>
  <v type="int" >       33 </v>
  <v type="int" >       63 </v>
  <v type="int" >        7 </v>
  <v type="int" >       20 </v>
  <v type="int" >       64 </v>
  <v type="int" >        5 </v>
  <v type="int" >        3 </v>
  <v type="int" >       60 </v>
  <v type="int" >       15 </v>
  <v type="int" >       55 </v>
  <v type="int" >       11 </v>
  <v type="int" >       19 </v>
  <v type="int" >       13 </v>
  <v type="int" >       57 </v>
  <v type="int" >        4 </v>
  <v type="int" >        6 </v>
  <v type="int" >       32 </v>
  <v type="int" >       51 </v>
  <v type="int" >       41 </v>
  <v type="int" >       52 </v>
  <v type="int" >       50 </v>
  <v type="int" >       46 </v>
  <v type="int" >       62 </v>
 </varray>
 <kpoints>
  <generation param="Gamma">
   <v type="int" name="divisions">       3        3        3 </v>
   <v name="usershift">      0.00000000       0.00000000       0.00000000 </v>
   <v name="genvec1">      0.33333333      -0.00000000      -0.00000000 </v>
   <v name="genvec2">      0.00000000       0.33333333       0.00000000 </v>
   <v name="genvec3">      0.00000000       0.00000000       0.33333333 </v>
   <v name="shift">      0.00000000       0.00000000       0.00000000 </v>
  </generation>
  <varray name="kpointlist" >
   <v>       0.00000000       0.00000000       0.00000000 </v>
   <v>       0.33333333       0.00000000       0.00000000 </v>
   <v>       0.00000000       0.33333333       0.00000000 </v>
   <v>       0.33333333       0.33333333       0.00000000 </v>
   <v>      -0.33333333       0.33333333       0.00000000 </v>
   <v>       0.00000000       0.00000000       0.33333333 </v>
   <v>       0.33333333       0.00000000       0.33333333 </v>
   <v>      -0.33333333       0.00000000       0.33333333 </v>
   <v>       0.00000000       0.33333333       0.33333333 </v>
   <v>       0.33333333       0.33333333       0.33333333 </v>
   <v>      -0.33333333       0.33333333       0.33333333 </v>
   <v>       0.00000000      -0.33333333       0.33333333 </v>
   <v>       0.33333333      -0.33333333       0.33333333 </v>
   <v>      -0.33333333      -0.33333333       0.33333333 </v>
  </varray>
  <varray name="weights" >
   <v>       0.03703704 </v>
   <v>       0.07407407 </v>
   <v>       0.07407407 </v>
   <v>       0.07407407 </v>
   <v>       0.07407407 </v>
   <v>       0.07407407 </v>
   <v>       0.07407407 </v>
   <v>       0.07407407 </v>
   <v>       0.07407407 </v>
   <v>       0.07407407 </v>
   <v>       0.07407407 </v>
   <v>       0.07407407 </v>
   <v>       0.07407407 </v>
   <v>       0.07407407 </v>
  </varray>
 </kpoints>
 <parameters>
  <separator name="general" >
   <i type="string" name="SYSTEM">HECN</i>
   <i type="logical" name="LCOMPAT"> F  </i>
  </separator>
  <separator name="electronic" >
   <i type="string" name="PREC">normal</i>
   <i name="ENMAX">    400.00000000</i>
   <i name="ENAUG">    644.87300000</i>
   <i name="EDIFF">      0.00001000</i>
   <i type="int" name="IALGO">    68</i>
   <i type="int" name="IWAVPR">    11</i>
   <i type="int" name="NBANDS">   312</i>
   <i name="NELECT">    482.00000000</i>
   <i type="int" name="TURBO">     0</i>
   <i type="int" name="IRESTART">     0</i>
   <i type="int" name="NREBOOT">     0</i>
   <i type="int" name="NMIN">     0</i>
   <i name="EREF">      0.00000000</i>
   <separator name="electronic smearing" >
    <i type="int" name="ISMEAR">     0</i>
    <i name="SIGMA">      0.10000000</i>
    <i name="KSPACING">      0.50000000</i>
    <i type="logical" name="KGAMMA"> T  </i>
   </separator>
   <separator name="electronic projectors" >
    <i type="logical" name="LREAL"> F  </i>
    <v name="ROPT">      0.00000000      0.00000000      0.00000000      0.00000000      0.00000000      0.00000000      0.00000000</v>
    <i type="int" name="LMAXPAW">  -100</i>
    <i type="int" name="LMAXMIX">     2</i>
    <i type="logical" name="NLSPLINE"> F  </i>
   </separator>
   <separator name="electronic startup" >
    <i type="int" name="ISTART">     0</i>
    <i type="int" name="ICHARG">     2</i>
    <i type="int" name="INIWAV">     1</i>
   </separator>
   <separator name="electronic spin" >
    <i type="int" name="ISPIN">     1</i>
    <i type="logical" name="LNONCOLLINEAR"> F  </i>
    <v name="MAGMOM">      1.00000000      1.00000000      1.00000000      1.00000000      1.00000000      1.00000000      1.00000000      1.00000000      1.00000000      1.00000000      1.00000000      1.00000000      1.00000000      1.00000000      1.00000000      1.00000000      1.00000000      1.00000000      1.00000000      1.00000000
      1.00000000      1.00000000      1.00000000      1.00000000      1.00000000      1.00000000      1.00000000      1.00000000      1.00000000      1.00000000      1.00000000      1.00000000      1.00000000      1.00000000      1.00000000      1.00000000      1.00000000      1.00000000      1.00000000      1.00000000
      1.00000000      1.00000000      1.00000000      1.00000000      1.00000000      1.00000000      1.00000000      1.00000000      1.00000000      1.00000000      1.00000000      1.00000000      1.00000000      1.00000000      1.00000000      1.00000000      1.00000000      1.00000000      1.00000000      1.00000000
      1.00000000      1.00000000      1.00000000      1.00000000</v>
    <i name="NUPDOWN">     -1.00000000</i>
    <i type="logical" name="LSORBIT"> F  </i>
    <v name="SAXIS">      0.00000000      0.00000000      1.00000000</v>
    <i type="logical" name="LSPIRAL"> F  </i>
    <v name="QSPIRAL">      0.00000000      0.00000000      0.00000000</v>
    <i type="logical" name="LZEROZ"> F  </i>
   </separator>
   <separator name="electronic exchange-correlation" >
    <i type="logical" name="LASPH"> F  </i>
    <i type="logical" name="LMETAGGA"> F  </i>
   </separator>
   <separator name="electronic convergence" >
    <i type="int" name="NELM">    60</i>
    <i type="int" name="NELMDL">    -5</i>
    <i type="int" name="NELMIN">     2</i>
    <i name="ENINI">    400.00000000</i>
    <separator name="electronic convergence detail" >
     <i type="logical" name="LDIAG"> T  </i>
     <i type="logical" name="LSUBROT"> F  </i>
     <i name="WEIMIN">      0.00100000</i>
     <i name="EBREAK">      0.00000001</i>
     <i name="DEPER">      0.30000000</i>
     <i type="int" name="NRMM">     4</i>
     <i name="TIME">      0.40000000</i>
    </separator>
   </separator>
   <separator name="electronic mixer" >
    <i name="AMIX">      0.40000000</i>
    <i name="BMIX">      1.00000000</i>
    <i name="AMIN">      0.10000000</i>
    <i name="AMIX_MAG">      1.60000000</i>
    <i name="BMIX_MAG">      1.00000000</i>
    <separator name="electronic mixer details" >
     <i type="int" name="IMIX">     4</i>
     <i type="logical" name="MIXFIRST"> F  </i>
     <i type="int" name="MAXMIX">   -45</i>
     <i name="WC">    100.00000000</i>
     <i type="int" name="INIMIX">     1</i>
     <i type="int" name="MIXPRE">     1</i>
     <i type="int" name="MREMOVE">     5</i>
    </separator>
   </separator>
   <separator name="electronic dipolcorrection" >
    <i type="logical" name="LDIPOL"> F  </i>
    <i type="logical" name="LMONO"> F  </i>
    <i type="int" name="IDIPOL">     0</i>
    <i name="EPSILON">      1.00000000</i>
    <v name="DIPOL">   -100.00000000   -100.00000000   -100.00000000</v>
    <i name="EFIELD">      0.00000000</i>
   </separator>
  </separator>
  <separator name="grids" >
   <i type="int" name="NGX">    48</i>
   <i type="int" name="NGY">    48</i>
   <i type="int" name="NGZ">    48</i>
   <i type="int" name="NGXF">    96</i>
   <i type="int" name="NGYF">    96</i>
   <i type="int" name="NGZF">    96</i>
   <i type="logical" name="ADDGRID"> F  </i>
  </separator>
  <separator name="ionic" >
   <i type="int" name="NSW">   100</i>
   <i type="int" name="IBRION">     2</i>
   <i type="int" name="MDALGO">     0</i>
   <i type="int" name="ISIF">     3</i>
   <i name="PSTRESS">      0.00000000</i>
   <i name="EDIFFG">     -0.01000000</i>
   <i type="int" name="NFREE">     1</i>
   <i name="POTIM">      0.50000000</i>
   <i name="SMASS">     -3.00000000</i>
   <i name="SCALEE">      1.00000000</i>
  </separator>
  <separator name="ionic md" >
   <i name="TEBEG">      0.00010000</i>
   <i name="TEEND">      0.00010000</i>
   <i type="int" name="NBLOCK">     1</i>
   <i type="int" name="KBLOCK">   100</i>
   <i type="int" name="NPACO">   256</i>
   <i name="APACO">     16.00000000</i>
  </separator>
  <separator name="symmetry" >
   <i type="int" name="ISYM">     2</i>
   <i name="SYMPREC">      0.00001000</i>
  </separator>
  <separator name="dos" >
   <i type="int" name="LORBIT">     0</i>
   <v name="RWIGS">     -1.00000000     -1.00000000     -1.00000000     -1.00000000     -1.00000000     -1.00000000     -1.00000000</v>
   <i type="int" name="NEDOS">   301</i>
   <i name="EMIN">     10.00000000</i>
   <i name="EMAX">    -10.00000000</i>
   <i name="EFERMI">      0.00000000</i>
  </separator>
  <separator name="writing" >
   <i type="int" name="NWRITE">     2</i>
   <i type="logical" name="LWAVE"> F  </i>
   <i type="logical" name="LDOWNSAMPLE"> F  </i>
   <i type="logical" name="LCHARG"> F  </i>
   <i type="logical" name="LPARD"> F  </i>
   <i type="logical" name="LVTOT"> F  </i>
   <i type="logical" name="LVHAR"> F  </i>
   <i type="logical" name="LELF"> F  </i>
   <i type="logical" name="LOPTICS"> F  </i>
   <v name="STM">      0.00000000      0.00000000      0.00000000      0.00000000      0.00000000      0.00000000      0.00000000</v>
  </separator>
  <separator name="performance" >
   <i type="int" name="NPAR">    24</i>
   <i type="int" name="NSIM">     4</i>
   <i type="int" name="NBLK">    -1</i>
   <i type="logical" name="LPLANE"> T  </i>
   <i type="logical" name="LSCALAPACK"> T  </i>
   <i type="logical" name="LSCAAWARE"> F  </i>
   <i type="logical" name="LSCALU"> F  </i>
   <i type="logical" name="LASYNC"> F  </i>
   <i type="logical" name="LORBITALREAL"> F  </i>
  </separator>
  <separator name="miscellaneous" >
   <i type="int" name="IDIOT">     3</i>
   <i type="int" name="ISPECIAL">     0</i>
   <i type="logical" name="LMUSIC"> F  </i>
   <v name="POMASS">    180.94800000    183.85000000     91.22400000     14.00100000     12.01100000     51.99600000     95.94000000</v>
   <v name="DARWINR">      0.00000000      0.00000000      0.00000000      0.00000000      0.00000000      0.00000000      0.00000000</v>
   <v name="DARWINV">      1.00000000      1.00000000      1.00000000      1.00000000      1.00000000      1.00000000      1.00000000</v>
   <i type="logical" name="LCORR"> T  </i>
  </separator>
  <i type="logical" name="GGA_COMPAT"> T  </i>
  <i type="logical" name="LBERRY"> F  </i>
  <i type="int" name="ICORELEVEL">     0</i>
  <i type="logical" name="LDAU"> F  </i>
  <i type="int" name="I_CONSTRAINED_M">     0</i>
  <separator name="electronic exchange-correlation" >
   <i type="string" name="GGA">--</i>
   <i type="int" name="VOSKOWN">     0</i>
   <i type="logical" name="LHFCALC"> F  </i>
   <i type="string" name="PRECFOCK"></i>
   <i type="logical" name="LSYMGRAD"> F  </i>
   <i type="logical" name="LHFONE"> F  </i>
   <i type="logical" name="LRHFCALC"> F  </i>
   <i type="logical" name="LTHOMAS"> F  </i>
   <i type="logical" name="LMODELHF"> F  </i>
   <i name="ENCUT4O">     -1.00000000</i>
   <i type="int" name="EXXOEP">     0</i>
   <i type="int" name="FOURORBIT">     0</i>
   <i name="AEXX">      0.00000000</i>
   <i name="HFALPHA">      0.00000000</i>
   <i name="MCALPHA">      0.00000000</i>
   <i name="ALDAX">      1.00000000</i>
   <i name="AGGAX">      1.00000000</i>
   <i name="ALDAC">      1.00000000</i>
   <i name="AGGAC">      1.00000000</i>
   <i type="int" name="NKREDX">     1</i>
   <i type="int" name="NKREDY">     1</i>
   <i type="int" name="NKREDZ">     1</i>
   <i type="logical" name="SHIFTRED"> F  </i>
   <i type="logical" name="ODDONLY"> F  </i>
   <i type="logical" name="EVENONLY"> F  </i>
   <i type="int" name="LMAXFOCK">     0</i>
   <i type="int" name="NMAXFOCKAE">     0</i>
   <i type="logical" name="LFOCKAEDFT"> F  </i>
   <i name="HFSCREEN">      0.00000000</i>
   <i name="HFSCREENC">      0.00000000</i>
   <i type="int" name="NBANDSGWLOW">     0</i>
  </separator>
  <separator name="vdW DFT" >
   <i type="logical" name="LUSE_VDW"> F  </i>
   <i name="Zab_VDW">     -0.84910000</i>
   <i name="PARAM1">      0.12340000</i>
   <i name="PARAM2">      1.00000000</i>
   <i name="PARAM3">      0.00000000</i>
  </separator>
  <separator name="model GW" >
   <i type="int" name="MODEL_GW">     0</i>
   <i name="MODEL_EPS0">      6.77734242</i>
   <i name="MODEL_ALPHA">      1.00000000</i>
  </separator>
  <separator name="linear response parameters" >
   <i type="logical" name="LEPSILON"> F  </i>
   <i type="logical" name="LRPA"> F  </i>
   <i type="logical" name="LNABLA"> F  </i>
   <i type="logical" name="LVEL"> F  </i>
   <i type="int" name="KINTER">     0</i>
   <i name="CSHIFT">      0.10000000</i>
   <i name="OMEGAMAX">     -1.00000000</i>
   <i name="DEG_THRESHOLD">      0.00200000</i>
   <i name="RTIME">     -0.10000000</i>
   <i name="WPLASMAI">      0.00000000</i>
   <v name="DFIELD">      0.00000000      0.00000000      0.00000000</v>
   <v name="WPLASMA">      0.00000000      0.00000000      0.00000000      0.00000000      0.00000000      0.00000000      0.00000000      0.00000000      0.00000000</v>
  </separator>
  <separator name="orbital magnetization" >
   <i type="logical" name="NUCIND"> F  </i>
   <v name="MAGPOS">      0.00000000      0.00000000      0.00000000</v>
   <i type="logical" name="LNICSALL"> T  </i>
   <i type="logical" name="ORBITALMAG"> F  </i>
   <i type="logical" name="LMAGBLOCH"> F  </i>
   <i type="logical" name="LCHIMAG"> F  </i>
   <i type="logical" name="LGAUGE"> T  </i>
   <i type="int" name="MAGATOM">     0</i>
   <v name="MAGDIPOL">      0.00000000      0.00000000      0.00000000</v>
   <v name="AVECCONST">      0.00000000      0.00000000      0.00000000</v>
  </separator>
  <separator name="response functions" >
   <i type="logical" name="LADDER"> F  </i>
   <i type="logical" name="LRPAFORCE"> F  </i>
   <i type="logical" name="LFXC"> F  </i>
   <i type="logical" name="LHARTREE"> T  </i>
   <i type="int" name="IBSE">     0</i>
   <v type="int" name="KPOINT">    -1     0     0     0</v>
   <i type="logical" name="LTCTE"> F  </i>
   <i type="logical" name="LTETE"> F  </i>
   <i type="logical" name="LTRIPLET"> F  </i>
   <i type="logical" name="LFXCEPS"> F  </i>
   <i type="logical" name="LFXHEG"> F  </i>
   <i type="int" name="NATURALO">     2</i>
   <i type="logical" name="L2ORDER"> F  </i>
   <i type="logical" name="LMP2LT"> F  </i>
   <i type="logical" name="LUSEW"> F  </i>
   <i name="ENCUTGW">     -2.00000000</i>
   <i name="ENCUTGWSOFT">     -2.00000000</i>
   <i name="ENCUTLF">     -1.00000000</i>
   <i type="int" name="LMAXMP2">    -1</i>
   <i name="SCISSOR">      0.00000000</i>
   <i type="int" name="NOMEGA">     0</i>
   <i type="int" name="NOMEGAR">     0</i>
   <i type="int" name="NBANDSGW">    -1</i>
   <i type="int" name="NBANDSO">    -1</i>
   <i type="int" name="NBANDSV">    -1</i>
   <i type="int" name="NELM">    60</i>
   <i type="int" name="NELMHF">     1</i>
   <i type="int" name="DIM">     3</i>
   <i type="int" name="ANTIRES">     0</i>
   <i name="OMEGAMAX">    -30.00000000</i>
   <i name="OMEGAMIN">    -30.00000000</i>
   <i name="OMEGATL">   -200.00000000</i>
   <i type="int" name="OMEGAGRID">   140</i>
   <i name="CSHIFT">     -0.10000000</i>
   <i type="logical" name="SELFENERGY"> F  </i>
   <i type="logical" name="LSPECTRAL"> F  </i>
   <i type="logical" name="LSPECTRALGW"> F  </i>
   <i type="logical" name="LSINGLES"> F  </i>
   <i type="logical" name="LFERMIGW"> F  </i>
   <i type="logical" name="ODDONLYGW"> F  </i>
   <i type="logical" name="EVENONLYGW"> F  </i>
   <i type="int" name="NKREDLFX">     1</i>
   <i type="int" name="NKREDLFY">     1</i>
   <i type="int" name="NKREDLFZ">     1</i>
   <i type="int" name="MAXMEM">  2800</i>
   <i type="int" name="TELESCOPE">     0</i>
   <i type="int" name="TAUPAR">     1</i>
   <i type="int" name="OMEGAPAR">    -1</i>
   <i name="LAMBDA">      1.00000000</i>
  </separator>
  <separator name="External order field" >
   <i name="OFIELD_KAPPA">      0.00000000</i>
   <v name="OFIELD_K">      0.00000000      0.00000000      0.00000000</v>
   <i name="OFIELD_Q6_NEAR">      0.00000000</i>
   <i name="OFIELD_Q6_FAR">      0.00000000</i>
   <i name="OFIELD_A">      0.00000000</i>
  </separator>
 </parameters>
 <atominfo>
  <atoms>      64 </atoms>
  <types>       7 </types>
  <array name="atoms" >
   <dimension dim="1">ion</dimension>
   <field type="string">element</field>
   <field type="int">atomtype</field>
   <set>
    <rc><c>Ta</c><c>   1</c></rc>
    <rc><c>Ta</c><c>   1</c></rc>
    <rc><c>Ta</c><c>   1</c></rc>
    <rc><c>Ta</c><c>   1</c></rc>
    <rc><c>Ta</c><c>   1</c></rc>
    <rc><c>Ta</c><c>   1</c></rc>
    <rc><c>Ta</c><c>   1</c></rc>
    <rc><c>W </c><c>   2</c></rc>
    <rc><c>W </c><c>   2</c></rc>
    <rc><c>W </c><c>   2</c></rc>
    <rc><c>W </c><c>   2</c></rc>
    <rc><c>W </c><c>   2</c></rc>
    <rc><c>W </c><c>   2</c></rc>
    <rc><c>Zr</c><c>   3</c></rc>
    <rc><c>Zr</c><c>   3</c></rc>
    <rc><c>Zr</c><c>   3</c></rc>
    <rc><c>Zr</c><c>   3</c></rc>
    <rc><c>Zr</c><c>   3</c></rc>
    <rc><c>Zr</c><c>   3</c></rc>
    <rc><c>Zr</c><c>   3</c></rc>
    <rc><c>N </c><c>   4</c></rc>
    <rc><c>N </c><c>   4</c></rc>
    <rc><c>N </c><c>   4</c></rc>
    <rc><c>N </c><c>   4</c></rc>
    <rc><c>N </c><c>   4</c></rc>
    <rc><c>N </c><c>   4</c></rc>
    <rc><c>N </c><c>   4</c></rc>
    <rc><c>N </c><c>   4</c></rc>
    <rc><c>N </c><c>   4</c></rc>
    <rc><c>N </c><c>   4</c></rc>
    <rc><c>N </c><c>   4</c></rc>
    <rc><c>N </c><c>   4</c></rc>
    <rc><c>N </c><c>   4</c></rc>
    <rc><c>C </c><c>   5</c></rc>
    <rc><c>C </c><c>   5</c></rc>
    <rc><c>C </c><c>   5</c></rc>
    <rc><c>C </c><c>   5</c></rc>
    <rc><c>C </c><c>   5</c></rc>
    <rc><c>C </c><c>   5</c></rc>
    <rc><c>C </c><c>   5</c></rc>
    <rc><c>C </c><c>   5</c></rc>
    <rc><c>C </c><c>   5</c></rc>
    <rc><c>C </c><c>   5</c></rc>
    <rc><c>C </c><c>   5</c></rc>
    <rc><c>C </c><c>   5</c></rc>
    <rc><c>C </c><c>   5</c></rc>
    <rc><c>C </c><c>   5</c></rc>
    <rc><c>C </c><c>   5</c></rc>
    <rc><c>C </c><c>   5</c></rc>
    <rc><c>C </c><c>   5</c></rc>
    <rc><c>C </c><c>   5</c></rc>
    <rc><c>C </c><c>   5</c></rc>
    <rc><c>Cr</c><c>   6</c></rc>
    <rc><c>Cr</c><c>   6</c></rc>
    <rc><c>Cr</c><c>   6</c></rc>
    <rc><c>Cr</c><c>   6</c></rc>
    <rc><c>Cr</c><c>   6</c></rc>
    <rc><c>Cr</c><c>   6</c></rc>
    <rc><c>Mo</c><c>   7</c></rc>
    <rc><c>Mo</c><c>   7</c></rc>
    <rc><c>Mo</c><c>   7</c></rc>
    <rc><c>Mo</c><c>   7</c></rc>
    <rc><c>Mo</c><c>   7</c></rc>
    <rc><c>Mo</c><c>   7</c></rc>
   </set>
  </array>
  <array name="atomtypes" >
   <dimension dim="1">type</dimension>
   <field type="int">atomspertype</field>
   <field type="string">element</field>
   <field>mass</field>
   <field>valence</field>
   <field type="string">pseudopotential</field>
   <set>
    <rc><c>   7</c><c>Ta</c><c>    180.94800000</c><c>     11.00000000</c><c> PAW_PBE Ta_pv 07Sep2000                </c></rc>
    <rc><c>   6</c><c>W </c><c>    183.85000000</c><c>     12.00000000</c><c> PAW_PBE W_pv 06Sep2000                 </c></rc>
    <rc><c>   7</c><c>Zr</c><c>     91.22400000</c><c>     12.00000000</c><c> PAW_PBE Zr_sv 07Sep2000                </c></rc>
    <rc><c>  13</c><c>N </c><c>     14.00100000</c><c>      5.00000000</c><c> PAW_PBE N 08Apr2002                    </c></rc>
    <rc><c>  19</c><c>C </c><c>     12.01100000</c><c>      4.00000000</c><c> PAW_PBE C 08Apr2002                    </c></rc>
    <rc><c>   6</c><c>Cr</c><c>     51.99600000</c><c>     12.00000000</c><c> PAW_PBE Cr_pv 07Sep2000                </c></rc>
    <rc><c>   6</c><c>Mo</c><c>     95.94000000</c><c>      6.00000000</c><c> PAW_PBE Mo 08Apr2002                   </c></rc>
   </set>
  </array>
 </atominfo>
 <structure name="initialpos" >
  <crystal>
   <varray name="basis" >
    <v>       8.93249989       0.00000000       0.00000000 </v>
    <v>       0.00575300       9.05559834       0.00000000 </v>
    <v>       0.03210180      -0.01574346       8.93712807 </v>
   </varray>
   <i name="volume">    722.91652451 </i>
   <varray name="rec_basis" >
    <v>       0.11195074      -0.00007112      -0.00040225 </v>
    <v>       0.00000000       0.11042893       0.00019453 </v>
    <v>       0.00000000       0.00000000       0.11189277 </v>
   </varray>
  </crystal>
  <varray name="positions" >
   <v>       0.99688001       0.99204997       0.99924002 </v>
   <v>       0.25398003       0.99714995       0.24912000 </v>
   <v>       0.24803003       0.50165000       0.24955001 </v>
   <v>       0.50501006       0.49745998       0.99834003 </v>
   <v>       0.50479003       0.24631001       0.74710002 </v>
   <v>       0.99427992       0.50449999       0.49779000 </v>
   <v>       0.49950005       0.75481999       0.74817004 </v>
   <v>       0.99437004       0.23617001       0.26379999 </v>
   <v>       0.75718000       0.74102998       0.01100000 </v>
   <v>       0.00201000       0.25541000       0.73894001 </v>
   <v>       0.75307001       0.26163001       0.50533002 </v>
   <v>       0.99514004       0.74492004       0.74511997 </v>
   <v>       0.25679999       0.49462002       0.74545002 </v>
   <v>       0.24788999       0.24839000       0.99657997 </v>
   <v>       0.50833000       0.25676999       0.25376001 </v>
   <v>       0.74879004       0.98787999       0.26967001 </v>
   <v>       0.75719000       0.25603001       0.99591997 </v>
   <v>       0.24762001       0.74973999       0.99974006 </v>
   <v>       0.25272001       0.24823001       0.50015003 </v>
   <v>       0.24457999       0.75048999       0.49983999 </v>
   <v>       0.24982001       0.24942998       0.24825000 </v>
   <v>       0.26146999       0.99984002       0.99295996 </v>
   <v>       0.00281000       0.25024000       0.00130000 </v>
   <v>       0.75313998       0.24617000       0.25492002 </v>
   <v>       0.74767001       0.99748000       0.01202000 </v>
   <v>       0.50714994       0.99977000       0.24673000 </v>
   <v>       0.99051999       0.48088002       0.24100998 </v>
   <v>       0.50519005       0.76130999       0.00855000 </v>
   <v>       0.98896989       0.00202000       0.73708999 </v>
   <v>       0.75744996       0.24437997       0.74896999 </v>
   <v>       0.73632001       0.00417000       0.51063000 </v>
   <v>       0.50563996       0.23264999       0.49544997 </v>
   <v>       0.50008998       0.00061000       0.73471998 </v>
   <v>       0.99720000       0.99771992       0.25899999 </v>
   <v>       0.50427997       0.24673000       0.00262000 </v>
   <v>       0.25133999       0.74958002       0.24910999 </v>
   <v>       0.24328000       0.50072997       0.99510994 </v>
   <v>       0.99837005       0.74313996       0.00460000 </v>
   <v>       0.75633000       0.73891003       0.25767000 </v>
   <v>       0.75839004       0.50315998       0.00288000 </v>
   <v>       0.50700002       0.50333002       0.25878999 </v>
   <v>       0.24900999       0.25315000       0.74854000 </v>
   <v>       0.24446000       0.99823996       0.50287998 </v>
   <v>       0.99804009       0.24229999       0.50128003 </v>
   <v>       0.24177002       0.75340997       0.75018002 </v>
   <v>       0.25841001       0.50062002       0.50129001 </v>
   <v>       0.99000004       0.76215003       0.49746000 </v>
   <v>       0.99203996       0.50055999       0.75138002 </v>
   <v>       0.75036005       0.74888000       0.74756004 </v>
   <v>       0.74036002       0.50197000       0.50067003 </v>
   <v>       0.50575006       0.74958002       0.49720000 </v>
   <v>       0.50501003       0.50217998       0.73912003 </v>
   <v>       0.51588997       0.01358000       0.98075008 </v>
   <v>       0.99841994       0.50976998       0.98613004 </v>
   <v>       0.50379003       0.73926997       0.25905001 </v>
   <v>       0.23780002       0.01082000       0.74607998 </v>
   <v>       0.47957999       0.98308000       0.49717999 </v>
   <v>       0.74279003       0.97869994       0.76450995 </v>
   <v>       0.99864998       0.77573999       0.26102000 </v>
   <v>       0.73551001       0.51468004       0.26666001 </v>
   <v>       0.02362000       0.99783001       0.49557002 </v>
   <v>       0.50539000       0.52833005       0.49917999 </v>
   <v>       0.73876003       0.52828003       0.73814999 </v>
   <v>       0.75400003       0.72937999       0.49116997 </v>
  </varray>
 </structure>
 <calculation>
  <scstep>
   <time name="dav">   21.31   21.36</time>
   <time name="total">   21.35   21.40</time>
   <energy>
    <i name="alphaZ">   4284.84717341 </i>
    <i name="ewald"> -36852.94504842 </i>
    <i name="hartreedc">  -6817.74570060 </i>
    <i name="XCdc">   1217.82277182 </i>
    <i name="pawpsdc">  25726.61599759 </i>
    <i name="pawaedc"> -25310.17350911 </i>
    <i name="eentropy">     -0.05730775 </i>
    <i name="bandstr">   1581.27208805 </i>
    <i name="atom">  41288.43670683 </i>
    <i name="e_fr_energy">   5118.07317182 </i>
    <i name="e_wo_entrp">   5118.13047956 </i>
    <i name="e_0_energy">   5118.10182569 </i>
   </energy>
  </scstep>
  <scstep>
   <time name="dav">   22.78   22.83</time>
   <time name="total">   22.78   22.83</time>
   <energy>
    <i name="e_fr_energy">      4.01145326 </i>
    <i name="e_wo_entrp">      4.15993442 </i>
    <i name="e_0_energy">      4.08569384 </i>
   </energy>
  </scstep>
  <scstep>
   <time name="dav">   30.87   30.89</time>
   <time name="total">   30.87   30.89</time>
   <energy>
    <i name="e_fr_energy">   -713.81413934 </i>
    <i name="e_wo_entrp">   -713.68319936 </i>
    <i name="e_0_energy">   -713.74866935 </i>
   </energy>
  </scstep>
  <scstep>
   <time name="dav">   36.44   36.47</time>
   <time name="total">   36.44   36.47</time>
   <energy>
    <i name="e_fr_energy">   -779.18307115 </i>
    <i name="e_wo_entrp">   -779.03267661 </i>
    <i name="e_0_energy">   -779.10787388 </i>
   </energy>
  </scstep>
  <scstep>
   <time name="dav">   36.11   36.21</time>
   <time name="total">   36.36   36.46</time>
   <energy>
    <i name="e_fr_energy">   -782.70654247 </i>
    <i name="e_wo_entrp">   -782.55112254 </i>
    <i name="e_0_energy">   -782.62883251 </i>
   </energy>
  </scstep>
  <scstep>
   <time name="diag">    1.82    1.82</time>
   <time name="diis">   19.34   19.40</time>
   <time name="orth">    0.43    0.43</time>
   <time name="total">   21.88   21.94</time>
   <energy>
    <i name="e_fr_energy">   -985.55225711 </i>
    <i name="e_wo_entrp">   -985.41232095 </i>
    <i name="e_0_energy">   -985.48228903 </i>
   </energy>
  </scstep>
  <scstep>
   <time name="diag">    1.81    1.81</time>
   <time name="diis">   20.70   20.75</time>
   <time name="orth">    0.43    0.43</time>
   <time name="total">   23.24   23.29</time>
   <energy>
    <i name="e_fr_energy">   -660.67623221 </i>
    <i name="e_wo_entrp">   -660.52826530 </i>
    <i name="e_0_energy">   -660.60224876 </i>
   </energy>
  </scstep>
  <scstep>
   <time name="diag">    1.84    1.84</time>
   <time name="diis">   23.14   23.18</time>
   <time name="orth">    0.43    0.43</time>
   <time name="total">   25.70   25.73</time>
   <energy>
    <i name="e_fr_energy">   -658.39472249 </i>
    <i name="e_wo_entrp">   -658.22348474 </i>
    <i name="e_0_energy">   -658.30910361 </i>
   </energy>
  </scstep>
  <scstep>
   <time name="diag">    1.84    1.85</time>
   <time name="diis">   20.95   21.02</time>
   <time name="orth">    0.43    0.43</time>
   <time name="total">   23.50   23.58</time>
   <energy>
    <i name="e_fr_energy">   -654.57339302 </i>
    <i name="e_wo_entrp">   -654.40743673 </i>
    <i name="e_0_energy">   -654.49041487 </i>
   </energy>
  </scstep>
  <scstep>
   <time name="diag">    1.82    1.83</time>
   <time name="diis">   22.31   22.34</time>
   <time name="orth">    0.43    0.43</time>
   <time name="total">   24.85   24.89</time>
   <energy>
    <i name="e_fr_energy">   -647.19861616 </i>
    <i name="e_wo_entrp">   -646.98163697 </i>
    <i name="e_0_energy">   -647.09012657 </i>
   </energy>
  </scstep>
  <scstep>
   <time name="diag">    1.82    1.83</time>
   <time name="diis">   21.53   21.60</time>
   <time name="orth">    0.43    0.43</time>
   <time name="total">   24.07   24.14</time>
   <energy>
    <i name="e_fr_energy">   -649.67433958 </i>
    <i name="e_wo_entrp">   -649.46664383 </i>
    <i name="e_0_energy">   -649.57049170 </i>
   </energy>
  </scstep>
  <scstep>
   <time name="diag">    1.84    1.84</time>
   <time name="diis">   20.30   20.36</time>
   <time name="orth">    0.43    0.43</time>
   <time name="total">   22.85   22.91</time>
   <energy>
    <i name="e_fr_energy">   -646.97597337 </i>
    <i name="e_wo_entrp">   -646.73041939 </i>
    <i name="e_0_energy">   -646.85319638 </i>
   </energy>
  </scstep>
  <scstep>
   <time name="diag">    1.81    1.82</time>
   <time name="diis">   22.47   22.51</time>
   <time name="orth">    0.43    0.43</time>
   <time name="total">   24.99   25.04</time>
   <energy>
    <i name="e_fr_energy">   -647.18491146 </i>
    <i name="e_wo_entrp">   -646.96253547 </i>
    <i name="e_0_energy">   -647.07372346 </i>
   </energy>
  </scstep>
  <scstep>
   <time name="diag">    1.86    1.86</time>
   <time name="diis">   21.70   21.74</time>
   <time name="orth">    0.43    0.43</time>
   <time name="total">   24.27   24.32</time>
   <energy>
    <i name="e_fr_energy">   -646.58188051 </i>
    <i name="e_wo_entrp">   -646.34962627 </i>
    <i name="e_0_energy">   -646.46575339 </i>
   </energy>
  </scstep>
  <scstep>
   <time name="diag">    1.82    1.82</time>
   <time name="diis">   21.19   21.21</time>
   <time name="orth">    0.43    0.43</time>
   <time name="total">   23.72   23.75</time>
   <energy>
    <i name="e_fr_energy">   -646.88630407 </i>
    <i name="e_wo_entrp">   -646.65389121 </i>
    <i name="e_0_energy">   -646.77009764 </i>
   </energy>
  </scstep>
  <scstep>
   <time name="diag">    1.82    1.83</time>
   <time name="diis">   22.19   22.29</time>
   <time name="orth">    0.44    0.44</time>
   <time name="total">   24.75   24.85</time>
   <energy>
    <i name="e_fr_energy">   -646.30217331 </i>
    <i name="e_wo_entrp">   -646.06334956 </i>
    <i name="e_0_energy">   -646.18276143 </i>
   </energy>
  </scstep>
  <scstep>
   <time name="diag">    1.83    1.83</time>
   <time name="diis">   22.64   22.67</time>
   <time name="orth">    0.43    0.43</time>
   <time name="total">   25.18   25.21</time>
   <energy>
    <i name="e_fr_energy">   -646.27228921 </i>
    <i name="e_wo_entrp">   -646.03054277 </i>
    <i name="e_0_energy">   -646.15141599 </i>
   </energy>
  </scstep>
  <scstep>
   <time name="diag">    1.82    1.82</time>
   <time name="diis">   22.02   22.11</time>
   <time name="orth">    0.43    0.43</time>
   <time name="total">   24.56   24.66</time>
   <energy>
    <i name="e_fr_energy">   -646.31911897 </i>
    <i name="e_wo_entrp">   -646.08008742 </i>
    <i name="e_0_energy">   -646.19960320 </i>
   </energy>
  </scstep>
  <scstep>
   <time name="diag">    1.84    1.84</time>
   <time name="diis">   22.60   22.62</time>
   <time name="orth">    0.42    0.42</time>
   <time name="total">   25.14   25.16</time>
   <energy>
    <i name="e_fr_energy">   -646.26786566 </i>
    <i name="e_wo_entrp">   -646.02701988 </i>
    <i name="e_0_energy">   -646.14744277 </i>
   </energy>
  </scstep>
  <scstep>
   <time name="diag">    1.83    1.83</time>
   <time name="diis">   22.45   22.48</time>
   <time name="orth">    0.43    0.43</time>
   <time name="total">   24.99   25.02</time>
   <energy>
    <i name="e_fr_energy">   -646.26425430 </i>
    <i name="e_wo_entrp">   -646.02351221 </i>
    <i name="e_0_energy">   -646.14388325 </i>
   </energy>
  </scstep>
  <scstep>
   <time name="diag">    1.83    1.83</time>
   <time name="diis">   22.68   22.76</time>
   <time name="orth">    0.43    0.43</time>
   <time name="total">   25.21   25.29</time>
   <energy>
    <i name="e_fr_energy">   -646.26404668 </i>
    <i name="e_wo_entrp">   -646.02307004 </i>
    <i name="e_0_energy">   -646.14355836 </i>
   </energy>
  </scstep>
  <scstep>
   <time name="diag">    1.82    1.82</time>
   <time name="diis">   22.09   22.12</time>
   <time name="orth">    0.43    0.43</time>
   <time name="total">   24.63   24.66</time>
   <energy>
    <i name="e_fr_energy">   -646.26325554 </i>
    <i name="e_wo_entrp">   -646.02225818 </i>
    <i name="e_0_energy">   -646.14275686 </i>
   </energy>
  </scstep>
  <scstep>
   <time name="diag">    1.82    1.82</time>
   <time name="diis">   20.99   21.03</time>
   <time name="orth">    0.43    0.43</time>
   <time name="total">   23.52   23.55</time>
   <energy>
    <i name="e_fr_energy">   -646.26322994 </i>
    <i name="e_wo_entrp">   -646.02211171 </i>
    <i name="e_0_energy">   -646.14267083 </i>
   </energy>
  </scstep>
  <scstep>
   <time name="diag">    1.83    1.83</time>
   <time name="diis">   18.94   18.95</time>
   <time name="orth">    0.43    0.43</time>
   <time name="total">   21.49   21.50</time>
   <energy>
    <i name="e_fr_energy">   -646.26324119 </i>
    <i name="e_wo_entrp">   -646.02215077 </i>
    <i name="e_0_energy">   -646.14269598 </i>
   </energy>
  </scstep>
  <scstep>
   <time name="diag">    1.82    1.82</time>
   <time name="diis">   15.85   15.89</time>
   <time name="orth">    0.45    0.45</time>
   <time name="total">   18.41   18.45</time>
   <energy>
    <i name="e_fr_energy">   -646.26325310 </i>
    <i name="e_wo_entrp">   -646.02216030 </i>
    <i name="e_0_energy">   -646.14270670 </i>
   </energy>
  </scstep>
  <scstep>
   <time name="diag">    1.83    1.83</time>
   <time name="diis">   12.79   12.81</time>
   <time name="orth">    0.49    0.51</time>
   <time name="total">   15.41   15.46</time>
   <energy>
    <i name="e_fr_energy">   -646.26325766 </i>
    <i name="e_wo_entrp">   -646.02216955 </i>
    <i name="e_0_energy">   -646.14271360 </i>
   </energy>
  </scstep>
  <scstep>
   <time name="diag">    1.83    1.83</time>
   <time name="diis">   12.18   12.22</time>
   <time name="orth">    0.44    0.44</time>
   <time name="total">   14.48   14.52</time>
   <energy>
    <i name="alphaZ">   4284.84717341 </i>
    <i name="ewald"> -36852.94504842 </i>
    <i name="hartreedc">  -6425.64579043 </i>
    <i name="XCdc">   1214.54717471 </i>
    <i name="pawpsdc">  27124.69874438 </i>
    <i name="pawaedc"> -26766.57580426 </i>
    <i name="eentropy">     -0.24109568 </i>
    <i name="bandstr">  -4513.38532348 </i>
    <i name="atom">  41288.43670683 </i>
    <i name="e_fr_energy">   -646.26326294 </i>
    <i name="e_wo_entrp">   -646.02216726 </i>
    <i name="e_0_energy">   -646.14271510 </i>
   </energy>
  </scstep>
  <structure>
   <crystal>
    <varray name="basis" >
     <v>       8.93249989       0.00000000       0.00000000 </v>
     <v>       0.00575300       9.05559834       0.00000000 </v>
     <v>       0.03210180      -0.01574346       8.93712807 </v>
    </varray>
    <i name="volume">    722.91652451 </i>
    <varray name="rec_basis" >
     <v>       0.11195074      -0.00007112      -0.00040225 </v>
     <v>       0.00000000       0.11042893       0.00019453 </v>
     <v>       0.00000000       0.00000000       0.11189277 </v>
    </varray>
   </crystal>
   <varray name="positions" >
    <v>       0.99688001       0.99204997       0.99924002 </v>
    <v>       0.25398003       0.99714995       0.24912000 </v>
    <v>       0.24803003       0.50165000       0.24955001 </v>
    <v>       0.50501006       0.49745998       0.99834003 </v>
    <v>       0.50479003       0.24631001       0.74710002 </v>
    <v>       0.99427992       0.50449999       0.49779000 </v>
    <v>       0.49950005       0.75481999       0.74817004 </v>
    <v>       0.99437004       0.23617001       0.26379999 </v>
    <v>       0.75718000       0.74102998       0.01100000 </v>
    <v>       0.00201000       0.25541000       0.73894001 </v>
    <v>       0.75307001       0.26163001       0.50533002 </v>
    <v>       0.99514004       0.74492004       0.74511997 </v>
    <v>       0.25679999       0.49462002       0.74545002 </v>
    <v>       0.24788999       0.24839000       0.99657997 </v>
    <v>       0.50833000       0.25676999       0.25376001 </v>
    <v>       0.74879004       0.98787999       0.26967001 </v>
    <v>       0.75719000       0.25603001       0.99591997 </v>
    <v>       0.24762001       0.74973999       0.99974006 </v>
    <v>       0.25272001       0.24823001       0.50015003 </v>
    <v>       0.24457999       0.75048999       0.49983999 </v>
    <v>       0.24982001       0.24942998       0.24825000 </v>
    <v>       0.26146999       0.99984002       0.99295996 </v>
    <v>       0.00281000       0.25024000       0.00130000 </v>
    <v>       0.75313998       0.24617000       0.25492002 </v>
    <v>       0.74767001       0.99748000       0.01202000 </v>
    <v>       0.50714994       0.99977000       0.24673000 </v>
    <v>       0.99051999       0.48088002       0.24100998 </v>
    <v>       0.50519005       0.76130999       0.00855000 </v>
    <v>       0.98896989       0.00202000       0.73708999 </v>
    <v>       0.75744996       0.24437997       0.74896999 </v>
    <v>       0.73632001       0.00417000       0.51063000 </v>
    <v>       0.50563996       0.23264999       0.49544997 </v>
    <v>       0.50008998       0.00061000       0.73471998 </v>
    <v>       0.99720000       0.99771992       0.25899999 </v>
    <v>       0.50427997       0.24673000       0.00262000 </v>
    <v>       0.25133999       0.74958002       0.24910999 </v>
    <v>       0.24328000       0.50072997       0.99510994 </v>
    <v>       0.99837005       0.74313996       0.00460000 </v>
    <v>       0.75633000       0.73891003       0.25767000 </v>
    <v>       0.75839004       0.50315998       0.00288000 </v>
    <v>       0.50700002       0.50333002       0.25878999 </v>
    <v>       0.24900999       0.25315000       0.74854000 </v>
    <v>       0.24446000       0.99823996       0.50287998 </v>
    <v>       0.99804009       0.24229999       0.50128003 </v>
    <v>       0.24177002       0.75340997       0.75018002 </v>
    <v>       0.25841001       0.50062002       0.50129001 </v>
    <v>       0.99000004       0.76215003       0.49746000 </v>
    <v>       0.99203996       0.50055999       0.75138002 </v>
    <v>       0.75036005       0.74888000       0.74756004 </v>
    <v>       0.74036002       0.50197000       0.50067003 </v>
    <v>       0.50575006       0.74958002       0.49720000 </v>
    <v>       0.50501003       0.50217998       0.73912003 </v>
    <v>       0.51588997       0.01358000       0.98075008 </v>
    <v>       0.99841994       0.50976998       0.98613004 </v>
    <v>       0.50379003       0.73926997       0.25905001 </v>
    <v>       0.23780002       0.01082000       0.74607998 </v>
    <v>       0.47957999       0.98308000       0.49717999 </v>
    <v>       0.74279003       0.97869994       0.76450995 </v>
    <v>       0.99864998       0.77573999       0.26102000 </v>
    <v>       0.73551001       0.51468004       0.26666001 </v>
    <v>       0.02362000       0.99783001       0.49557002 </v>
    <v>       0.50539000       0.52833005       0.49917999 </v>
    <v>       0.73876003       0.52828003       0.73814999 </v>
    <v>       0.75400003       0.72937999       0.49116997 </v>
   </varray>
  </structure>
  <varray name="forces" >
   <v>      -0.23400791      -0.15807897      -0.63289902 </v>
   <v>       0.35123733      -0.71944569      -0.11338847 </v>
   <v>       0.42833222       0.84293705      -0.41704578 </v>
   <v>      -0.04275928      -0.42728249      -0.14564833 </v>
   <v>      -0.45155475      -0.69113046       0.39007394 </v>
   <v>       0.02580708      -0.80801405       0.55222549 </v>
   <v>      -0.21302911       1.03567655       0.02706227 </v>
   <v>       0.13641339      -0.57373722       0.49946056 </v>
   <v>       0.53861312      -0.28863136      -0.09295526 </v>
   <v>       1.30903338       0.51636252      -0.83073371 </v>
   <v>       0.31484977      -0.00687949       0.23910809 </v>
   <v>       0.46106877      -0.43907161       0.44700601 </v>
   <v>      -0.13661128       0.48006904       0.79913789 </v>
   <v>       0.20013953      -0.04905506      -0.11071011 </v>
   <v>      -0.19324984      -1.07690003      -0.22420817 </v>
   <v>      -1.33992005       0.69628671      -0.10541158 </v>
   <v>      -0.32029423      -0.25756389      -0.36656169 </v>
   <v>       0.47336221       0.24473953      -0.15809469 </v>
   <v>       0.45802158       0.17930693       0.20324275 </v>
   <v>       0.62068261       0.00954711       0.10887176 </v>
   <v>      -0.29646487      -0.01007930       0.13805016 </v>
   <v>      -0.72045617       0.03947328       0.52387307 </v>
   <v>      -0.11410280      -0.63745275       0.15948181 </v>
   <v>       0.73661884       0.16387202       0.33219562 </v>
   <v>       0.42242265      -0.61543787      -1.23707387 </v>
   <v>      -1.73029691      -0.42569461       0.17960494 </v>
   <v>       0.98722962      -0.48698114       0.67272424 </v>
   <v>       0.59690614      -0.56510366      -0.70196838 </v>
   <v>      -0.25228486       0.17862961       1.31057091 </v>
   <v>      -0.43194110      -0.35567869      -0.64331193 </v>
   <v>       0.01088196       0.42400648       0.55997560 </v>
   <v>       0.42452928      -0.28565299       1.36088563 </v>
   <v>       0.55986374       0.07847164       0.66460465 </v>
   <v>       1.16180074       1.06366480      -1.58102856 </v>
   <v>      -0.06604172       0.54729615      -1.25633967 </v>
   <v>       0.43918120      -0.00635581       0.09044735 </v>
   <v>       0.45955050      -0.23133620       0.30968240 </v>
   <v>      -0.91278951       0.11930388      -0.35655766 </v>
   <v>      -0.88610049       0.24179356      -1.50489616 </v>
   <v>      -0.25109089       0.89206804       0.03035521 </v>
   <v>      -1.85228585       1.07536211      -1.23205036 </v>
   <v>       0.22957341      -0.53709606      -0.05945862 </v>
   <v>       1.95175177       0.00323620       0.30888930 </v>
   <v>      -0.76041749       0.81897983       0.17620317 </v>
   <v>       0.53180072      -0.00854867      -0.02260712 </v>
   <v>      -1.18337570      -0.17683606      -0.40242096 </v>
   <v>       0.29833038      -1.19304041       1.06373810 </v>
   <v>       0.40835211      -0.22528818       0.01625157 </v>
   <v>      -0.31615229       1.79850862       0.63749188 </v>
   <v>       1.28894056      -1.32749677       0.49250769 </v>
   <v>      -0.27956409       1.53599521      -0.16013664 </v>
   <v>      -1.07841634      -0.45749413       1.21930233 </v>
   <v>       0.33603724       0.74459179      -0.63862003 </v>
   <v>      -0.26669080       1.41291883      -0.92402393 </v>
   <v>       0.21351364      -0.76316264       0.32003103 </v>
   <v>      -0.48740079      -0.09645945       0.09760327 </v>
   <v>      -0.44597795      -0.12401901       0.07150590 </v>
   <v>      -0.61059963      -0.92251741       0.25412565 </v>
   <v>       0.35490933      -0.08813161      -0.60136910 </v>
   <v>       0.03057970      -0.23095606      -1.35386148 </v>
   <v>      -0.79634187       0.26044292       0.32089200 </v>
   <v>      -0.64891594      -0.32288863      -0.38834532 </v>
   <v>       0.27695378      -0.85940001       1.28135856 </v>
   <v>       0.28184622       1.04535806       0.40318581 </v>
  </varray>
  <varray name="stress" >
   <v>    -115.12318469      -2.70523848      -1.55442982 </v>
   <v>      -2.70523919    -128.68389229       0.26954145 </v>
   <v>      -1.55443240       0.26954116    -109.95940925 </v>
  </varray>
  <energy>
   <i name="e_fr_energy">   -646.26326294 </i>
   <i name="e_wo_entrp">   -646.14271510 </i>
   <i name="e_0_energy">     -0.24109568 </i>
  </energy>
  <time name="totalsc">  698.96  700.42</time>
 </calculation>
 <calculation>
  <scstep>
   <time name="dav">   29.23   29.31</time>
   <time name="total">   29.52   29.61</time>
   <energy>
    <i name="alphaZ">   4844.76827177 </i>
    <i name="ewald"> -38222.14908586 </i>
    <i name="hartreedc">  -6856.83364179 </i>
    <i name="XCdc">   1286.99617698 </i>
    <i name="pawpsdc">  27124.67928387 </i>
    <i name="pawaedc"> -26766.54782540 </i>
    <i name="eentropy">     -0.13405090 </i>
    <i name="bandstr">  -3387.93517572 </i>
    <i name="atom">  41288.43670683 </i>
    <i name="e_fr_energy">   -688.71934024 </i>
    <i name="e_wo_entrp">   -688.58528934 </i>
    <i name="e_0_energy">   -688.65231479 </i>
   </energy>
  </scstep>
  <scstep>
   <time name="diag">    1.86    1.86</time>
   <time name="diis">   16.84   16.85</time>
   <time name="orth">    0.43    0.43</time>
   <time name="total">   19.40   19.41</time>
   <energy>
    <i name="e_fr_energy">   -893.02833237 </i>
    <i name="e_wo_entrp">   -892.89840566 </i>
    <i name="e_0_energy">   -892.96336901 </i>
   </energy>
  </scstep>
  <scstep>
   <time name="diag">    1.82    1.82</time>
   <time name="diis">   18.83   18.89</time>
   <time name="orth">    0.43    0.43</time>
   <time name="total">   21.35   21.42</time>
   <energy>
    <i name="e_fr_energy">   -651.87421800 </i>
    <i name="e_wo_entrp">   -651.71692274 </i>
    <i name="e_0_energy">   -651.79557037 </i>
   </energy>
  </scstep>
  <scstep>
   <time name="diag">    1.83    1.83</time>
   <time name="diis">   20.46   20.51</time>
   <time name="orth">    0.43    0.43</time>
   <time name="total">   23.00   23.06</time>
   <energy>
    <i name="e_fr_energy">   -655.83666318 </i>
    <i name="e_wo_entrp">   -655.70056170 </i>
    <i name="e_0_energy">   -655.76861244 </i>
   </energy>
  </scstep>
  <scstep>
   <time name="diag">    1.82    1.82</time>
   <time name="diis">   18.88   18.92</time>
   <time name="orth">    0.44    0.44</time>
   <time name="total">   21.44   21.49</time>
   <energy>
    <i name="e_fr_energy">   -649.66290062 </i>
    <i name="e_wo_entrp">   -649.50169233 </i>
    <i name="e_0_energy">   -649.58229647 </i>
   </energy>
  </scstep>
  <scstep>
   <time name="diag">    1.81    1.81</time>
   <time name="diis">   20.35   20.39</time>
   <time name="orth">    0.43    0.43</time>
   <time name="total">   22.87   22.91</time>
   <energy>
    <i name="e_fr_energy">   -646.91914185 </i>
    <i name="e_wo_entrp">   -646.74646990 </i>
    <i name="e_0_energy">   -646.83280587 </i>
   </energy>
  </scstep>
  <scstep>
   <time name="diag">    1.82    1.82</time>
   <time name="diis">   18.28   18.30</time>
   <time name="orth">    0.43    0.43</time>
   <time name="total">   20.82   20.84</time>
   <energy>
    <i name="e_fr_energy">   -648.72344147 </i>
    <i name="e_wo_entrp">   -648.58540410 </i>
    <i name="e_0_energy">   -648.65442279 </i>
   </energy>
  </scstep>
  <scstep>
   <time name="diag">    1.83    1.83</time>
   <time name="diis">   19.39   19.42</time>
   <time name="orth">    0.47    0.50</time>
   <time name="total">   21.96   22.04</time>
   <energy>
    <i name="e_fr_energy">   -645.71493254 </i>
    <i name="e_wo_entrp">   -645.53803279 </i>
    <i name="e_0_energy">   -645.62648266 </i>
   </energy>
  </scstep>
  <scstep>
   <time name="diag">    1.82    1.82</time>
   <time name="diis">   22.39   23.13</time>
   <time name="orth">    0.98    1.07</time>
   <time name="total">   25.50   26.35</time>
   <energy>
    <i name="e_fr_energy">   -645.80324510 </i>
    <i name="e_wo_entrp">   -645.62670270 </i>
    <i name="e_0_energy">   -645.71497390 </i>
   </energy>
  </scstep>
  <scstep>
   <time name="diag">    2.36    2.42</time>
   <time name="diis">   22.58   22.62</time>
   <time name="orth">    0.43    0.43</time>
   <time name="total">   25.72   25.84</time>
   <energy>
    <i name="e_fr_energy">   -645.62378323 </i>
    <i name="e_wo_entrp">   -645.44541368 </i>
    <i name="e_0_energy">   -645.53459846 </i>
   </energy>
  </scstep>
  <scstep>
   <time name="diag">    1.82    1.82</time>
   <time name="diis">   22.81   22.85</time>
   <time name="orth">    0.42    0.42</time>
   <time name="total">   25.33   25.37</time>
   <energy>
    <i name="e_fr_energy">   -645.68564247 </i>
    <i name="e_wo_entrp">   -645.51046970 </i>
    <i name="e_0_energy">   -645.59805609 </i>
   </energy>
  </scstep>
  <scstep>
   <time name="diag">    1.81    1.81</time>
   <time name="diis">   22.64   22.65</time>
   <time name="orth">    0.43    0.43</time>
   <time name="total">   25.17   25.18</time>
   <energy>
    <i name="e_fr_energy">   -645.63098744 </i>
    <i name="e_wo_entrp">   -645.45062114 </i>
    <i name="e_0_energy">   -645.54080429 </i>
   </energy>
  </scstep>
  <scstep>
   <time name="diag">    1.85    1.85</time>
   <time name="diis">   23.29   23.32</time>
   <time name="orth">    0.43    0.43</time>
   <time name="total">   25.84   25.88</time>
   <energy>
    <i name="e_fr_energy">   -645.67614336 </i>
    <i name="e_wo_entrp">   -645.49883706 </i>
    <i name="e_0_energy">   -645.58749021 </i>
   </energy>
  </scstep>
  <scstep>
   <time name="diag">    1.81    1.81</time>
   <time name="diis">   22.39   22.41</time>
   <time name="orth">    0.43    0.43</time>
   <time name="total">   24.91   24.92</time>
   <energy>
    <i name="e_fr_energy">   -645.64926010 </i>
    <i name="e_wo_entrp">   -645.46919935 </i>
    <i name="e_0_energy">   -645.55922973 </i>
   </energy>
  </scstep>
  <scstep>
   <time name="diag">    1.82    1.82</time>
   <time name="diis">   23.32   23.34</time>
   <time name="orth">    0.43    0.43</time>
   <time name="total">   25.86   25.89</time>
   <energy>
    <i name="e_fr_energy">   -645.65218626 </i>
    <i name="e_wo_entrp">   -645.47218264 </i>
    <i name="e_0_energy">   -645.56218445 </i>
   </energy>
  </scstep>
  <scstep>
   <time name="diag">    1.82    1.82</time>
   <time name="diis">   23.52   23.54</time>
   <time name="orth">    0.42    0.43</time>
   <time name="total">   26.05   26.08</time>
   <energy>
    <i name="e_fr_energy">   -645.65379999 </i>
    <i name="e_wo_entrp">   -645.47387163 </i>
    <i name="e_0_energy">   -645.56383581 </i>
   </energy>
  </scstep>
  <scstep>
   <time name="diag">    1.82    1.82</time>
   <time name="diis">   22.87   22.88</time>
   <time name="orth">    0.43    0.43</time>
   <time name="total">   25.40   25.42</time>
   <energy>
    <i name="e_fr_energy">   -645.65415222 </i>
    <i name="e_wo_entrp">   -645.47429190 </i>
    <i name="e_0_energy">   -645.56422206 </i>
   </energy>
  </scstep>
  <scstep>
   <time name="diag">    1.83    1.83</time>
   <time name="diis">   22.36   22.44</time>
   <time name="orth">    0.45    0.45</time>
   <time name="total">   24.92   25.00</time>
   <energy>
    <i name="e_fr_energy">   -645.65409650 </i>
    <i name="e_wo_entrp">   -645.47416426 </i>
    <i name="e_0_energy">   -645.56413038 </i>
   </energy>
  </scstep>
  <scstep>
   <time name="diag">    1.82    1.82</time>
   <time name="diis">   21.18   21.19</time>
   <time name="orth">    0.42    0.42</time>
   <time name="total">   23.69   23.71</time>
   <energy>
    <i name="e_fr_energy">   -645.65413786 </i>
    <i name="e_wo_entrp">   -645.47420529 </i>
    <i name="e_0_energy">   -645.56417157 </i>
   </energy>
  </scstep>
  <scstep>
   <time name="diag">    1.83    1.83</time>
   <time name="diis">   19.64   19.74</time>
   <time name="orth">    0.43    0.43</time>
   <time name="total">   22.18   22.30</time>
   <energy>
    <i name="e_fr_energy">   -645.65415484 </i>
    <i name="e_wo_entrp">   -645.47422988 </i>
    <i name="e_0_energy">   -645.56419236 </i>
   </energy>
  </scstep>
  <scstep>
   <time name="diag">    1.83    1.83</time>
   <time name="diis">   18.67   18.75</time>
   <time name="orth">    0.43    0.43</time>
   <time name="total">   21.20   21.29</time>
   <energy>
    <i name="e_fr_energy">   -645.65416652 </i>
    <i name="e_wo_entrp">   -645.47423016 </i>
    <i name="e_0_energy">   -645.56419834 </i>
   </energy>
  </scstep>
  <scstep>
   <time name="diag">    1.81    1.81</time>
   <time name="diis">   16.01   16.03</time>
   <time name="orth">    0.43    0.43</time>
   <time name="total">   18.28   18.31</time>
   <energy>
    <i name="alphaZ">   4844.76827177 </i>
    <i name="ewald"> -38222.14908586 </i>
    <i name="hartreedc">  -6157.04838766 </i>
    <i name="XCdc">   1248.02084603 </i>
    <i name="pawpsdc">  28563.42137730 </i>
    <i name="pawaedc"> -28210.24244143 </i>
    <i name="eentropy">     -0.17992491 </i>
    <i name="bandstr">  -4000.68153257 </i>
    <i name="atom">  41288.43670683 </i>
    <i name="e_fr_energy">   -645.65417050 </i>
    <i name="e_wo_entrp">   -645.47424559 </i>
    <i name="e_0_energy">   -645.56420804 </i>
   </energy>
  </scstep>
  <structure>
   <crystal>
    <varray name="basis" >
     <v>       8.58274435      -0.00821878      -0.00472251 </v>
     <v>      -0.00280431       8.65925102       0.00082714 </v>
     <v>       0.02613436      -0.01426463       8.60286908 </v>
    </varray>
    <i name="volume">    639.36738620 </i>
    <varray name="rec_basis" >
     <v>       0.11651269       0.00003777      -0.00035389 </v>
     <v>       0.00011069       0.11548345       0.00019115 </v>
     <v>       0.00006395      -0.00001108       0.11624008 </v>
    </varray>
   </crystal>
   <varray name="positions" >
    <v>       0.99562900       0.99120188       0.99582362 </v>
    <v>       0.25588166       0.99331613       0.24850792 </v>
    <v>       0.25034856       0.50613674       0.24729879 </v>
    <v>       0.50478342       0.49518231       0.99755382 </v>
    <v>       0.50234608       0.24263175       0.74920564 </v>
    <v>       0.99441136       0.50020057       0.50077091 </v>
    <v>       0.49834545       0.76033769       0.74831612 </v>
    <v>       0.99509906       0.23311818       0.26649608 </v>
    <v>       0.76009173       0.73949145       0.01049823 </v>
    <v>       0.00909418       0.25815307       0.73445571 </v>
    <v>       0.75476584       0.26159561       0.50662073 </v>
    <v>       0.99762302       0.74258513       0.74753291 </v>
    <v>       0.25604503       0.49718503       0.74976377 </v>
    <v>       0.24897322       0.24812762       0.99598235 </v>
    <v>       0.50729434       0.25103083       0.25254973 </v>
    <v>       0.74155305       0.99158839       0.26910100 </v>
    <v>       0.75546815       0.25465443       0.99394127 </v>
    <v>       0.25017877       0.75104233       0.99888666 </v>
    <v>       0.25518913       0.24918715       0.50124714 </v>
    <v>       0.24793003       0.75054187       0.50042768 </v>
    <v>       0.24821622       0.24937758       0.24899519 </v>
    <v>       0.25756865       0.00005523       0.99578783 </v>
    <v>       0.00219285       0.24684554       0.00216088 </v>
    <v>       0.75711130       0.24704612       0.25671321 </v>
    <v>       0.74997755       0.99418971       0.00534227 </v>
    <v>       0.49780292       0.99750384       0.24769951 </v>
    <v>       0.99584044       0.47829200       0.24464135 </v>
    <v>       0.50842938       0.75829288       0.00476077 </v>
    <v>       0.98758130       0.00298393       0.74416446 </v>
    <v>       0.75513083       0.24247910       0.74549739 </v>
    <v>       0.73636646       0.00643410       0.51365275 </v>
    <v>       0.50790733       0.23114097       0.50279604 </v>
    <v>       0.50310053       0.00103429       0.73830752 </v>
    <v>       0.00350168       0.00337164       0.25046559 </v>
    <v>       0.50394579       0.24963386      -0.00416173 </v>
    <v>       0.25371018       0.74954700       0.24959823 </v>
    <v>       0.24575673       0.49950046       0.99678161 </v>
    <v>       0.99344676       0.74377219       0.00267530 </v>
    <v>       0.75157272       0.74018403       0.24954656 </v>
    <v>       0.75703030       0.50791265       0.00304386 </v>
    <v>       0.49701641       0.50904732       0.25213938 </v>
    <v>       0.25025286       0.25028813       0.74821905 </v>
    <v>       0.25499502       0.99826010       0.50454736 </v>
    <v>       0.99392699       0.24666467       0.50223118 </v>
    <v>       0.24464263       0.75336422       0.75005798 </v>
    <v>       0.25202725       0.49967417       0.49911774 </v>
    <v>       0.99159471       0.75580422       0.50320206 </v>
    <v>       0.99424585       0.49935995       0.75146774 </v>
    <v>       0.74863404       0.75846733       0.75100122 </v>
    <v>       0.74731632       0.49490254       0.50332859 </v>
    <v>       0.50423802       0.75776135       0.49633558 </v>
    <v>       0.49916363       0.49975418       0.74570183 </v>
    <v>       0.51771468       0.01754073       0.97730280 </v>
    <v>       0.99699268       0.51728847       0.98114215 </v>
    <v>       0.50493958       0.73520731       0.26077754 </v>
    <v>       0.23516610       0.01030704       0.74660684 </v>
    <v>       0.47717039       0.98241998       0.49756598 </v>
    <v>       0.73949053       0.97378772       0.76588172 </v>
    <v>       0.00057874       0.77526484       0.25777381 </v>
    <v>       0.73570223       0.51343694       0.25935186 </v>
    <v>       0.01931199       0.99922050       0.49730219 </v>
    <v>       0.50189397       0.52660626       0.49708370 </v>
    <v>       0.74023389       0.52371370       0.74506677 </v>
    <v>       0.75551082       0.73495280       0.49334637 </v>
   </varray>
  </structure>
  <varray name="forces" >
   <v>       0.35844120       0.27150947      -0.88184176 </v>
   <v>       0.26547391      -0.01281702       0.18180392 </v>
   <v>      -0.28116435       0.02541103      -0.47311482 </v>
   <v>      -0.35199288       0.05067227       0.03110935 </v>
   <v>      -0.44409923      -0.33470112       0.07553692 </v>
   <v>       0.79233655      -0.24865848      -0.13073162 </v>
   <v>      -0.14754553       0.36972617       0.02267726 </v>
   <v>       0.42381334       0.53378355      -0.36545055 </v>
   <v>      -0.61427673       0.96065493      -0.49279692 </v>
   <v>       0.58203447      -0.19604722       0.87696008 </v>
   <v>      -0.52640132      -0.70995734      -0.22572886 </v>
   <v>       0.33001963       0.06191545       0.78079256 </v>
   <v>      -0.69657076       0.50797495       0.57603327 </v>
   <v>      -0.05817843      -0.22122332       0.29825656 </v>
   <v>      -0.39773771       0.04829012      -0.13401536 </v>
   <v>       0.16531918       0.13121398      -0.52449069 </v>
   <v>      -0.02084819      -0.23595449      -0.13387480 </v>
   <v>       0.26181666       0.24024597       0.00032963 </v>
   <v>       0.14821395      -0.03199989      -0.31034508 </v>
   <v>      -0.06892412       0.03893090       0.03874649 </v>
   <v>      -0.16452979       0.02090882       0.02675112 </v>
   <v>      -0.09703975       0.00263732       0.05389259 </v>
   <v>      -0.07194256      -0.21547660       0.15834657 </v>
   <v>      -0.01853610       0.38420374      -0.23781982 </v>
   <v>      -0.38413474      -0.18328732      -0.80792897 </v>
   <v>      -0.65718235      -0.71024657      -0.30265446 </v>
   <v>       0.37351338       0.49985297       0.09937245 </v>
   <v>       0.16739399       0.06012517      -0.37617903 </v>
   <v>      -0.23029108       0.13530376       0.56705532 </v>
   <v>      -0.00654719      -0.14907906      -0.09222696 </v>
   <v>       0.40337092      -0.23149576       0.94251016 </v>
   <v>       0.27679877       0.08082398       0.26088099 </v>
   <v>       0.30275961      -0.08346611       0.59769239 </v>
   <v>      -0.31879655      -0.16672834      -0.70386694 </v>
   <v>      -0.14518628       0.05343097       0.07282986 </v>
   <v>       0.63333745       0.00926387      -0.06776008 </v>
   <v>      -0.23931130       0.10371844       0.24195408 </v>
   <v>       1.11584357      -0.06521554       0.06506279 </v>
   <v>      -0.73250183       0.75315877      -0.05895694 </v>
   <v>       0.40494931      -0.85756478       0.11839390 </v>
   <v>      -0.39278424       0.05144494      -0.54333042 </v>
   <v>       0.45690874      -0.66316774       0.12423801 </v>
   <v>       0.45685475       0.12485353       0.76890830 </v>
   <v>       0.76529516       0.11770721      -0.19393247 </v>
   <v>       0.45762874       0.44914529       0.09129449 </v>
   <v>      -0.46379358       0.06105776      -0.16775713 </v>
   <v>       0.57281371      -0.53187112       0.17606182 </v>
   <v>       0.22305563      -0.33686991       0.45619610 </v>
   <v>       0.08899059       0.21625627      -0.04561849 </v>
   <v>      -0.26209900       0.32128862      -0.14828993 </v>
   <v>       0.28207015       0.93883017      -0.46768364 </v>
   <v>      -0.17639699       0.00525559       0.05386497 </v>
   <v>       0.01028547       0.14520209      -0.20299177 </v>
   <v>      -0.04933956       0.80977498      -0.47657257 </v>
   <v>      -0.25120503       0.11174228       0.29299082 </v>
   <v>      -0.62798822      -0.55048539       0.02651483 </v>
   <v>       0.63832137       0.65964508      -0.11038476 </v>
   <v>      -0.62523107       0.55044660       0.30588640 </v>
   <v>      -0.08873560      -1.06796546      -0.74923046 </v>
   <v>      -0.21193686      -1.32562205      -1.10029378 </v>
   <v>      -0.59254434       0.30897479       0.39566463 </v>
   <v>      -0.05913164      -1.22103350      -0.35401424 </v>
   <v>       0.23466230      -0.66779146       1.62793960 </v>
   <v>      -0.71739761       0.80334379       0.47333511 </v>
  </varray>
  <varray name="stress" >
   <v>     300.86898827       0.95116599       0.57187921 </v>
   <v>       0.95116666     300.23883463      -0.02355146 </v>
   <v>       0.57187942      -0.02354937     293.64378935 </v>
  </varray>
  <energy>
   <i name="e_fr_energy">   -645.65417050 </i>
   <i name="e_wo_entrp">   -645.56420804 </i>
   <i name="e_0_energy">     -0.17992491 </i>
  </energy>
  <time name="totalsc">  564.83  566.80</time>
 </calculation>
 <calculation>
  <scstep>
   <time name="dav">   29.29   29.34</time>
   <time name="total">   29.57   29.62</time>
   <energy>
    <i name="alphaZ">   4547.43075546 </i>
    <i name="ewald"> -37522.55416949 </i>
    <i name="hartreedc">  -5933.25657243 </i>
    <i name="XCdc">   1211.17489363 </i>
    <i name="pawpsdc">  28563.34336120 </i>
    <i name="pawaedc"> -28210.14249547 </i>
    <i name="eentropy">     -0.16729622 </i>
    <i name="bandstr">  -4609.05711998 </i>
    <i name="atom">  41288.43670683 </i>
    <i name="e_fr_energy">   -664.79193647 </i>
    <i name="e_wo_entrp">   -664.62464025 </i>
    <i name="e_0_energy">   -664.70828836 </i>
   </energy>
  </scstep>
  <scstep>
   <time name="diag">    1.81    1.81</time>
   <time name="diis">   21.01   21.08</time>
   <time name="orth">    0.43    0.43</time>
   <time name="total">   23.53   23.60</time>
   <energy>
    <i name="e_fr_energy">   -860.40332406 </i>
    <i name="e_wo_entrp">   -860.24676896 </i>
    <i name="e_0_energy">   -860.32504651 </i>
   </energy>
  </scstep>
  <scstep>
   <time name="diag">    1.82    1.82</time>
   <time name="diis">   20.13   20.16</time>
   <time name="orth">    0.43    0.43</time>
   <time name="total">   22.65   22.69</time>
   <energy>
    <i name="e_fr_energy">   -675.71335104 </i>
    <i name="e_wo_entrp">   -675.54802588 </i>
    <i name="e_0_energy">   -675.63068846 </i>
   </energy>
  </scstep>
  <scstep>
   <time name="diag">    1.82    1.82</time>
   <time name="diis">   18.97   19.06</time>
   <time name="orth">    0.43    0.43</time>
   <time name="total">   21.50   21.58</time>
   <energy>
    <i name="e_fr_energy">   -651.22194180 </i>
    <i name="e_wo_entrp">   -651.02768146 </i>
    <i name="e_0_energy">   -651.12481163 </i>
   </energy>
  </scstep>
  <scstep>
   <time name="diag">    1.82    1.82</time>
   <time name="diis">   18.22   18.25</time>
   <time name="orth">    0.43    0.43</time>
   <time name="total">   20.75   20.77</time>
   <energy>
    <i name="e_fr_energy">   -656.07554845 </i>
    <i name="e_wo_entrp">   -655.89944566 </i>
    <i name="e_0_energy">   -655.98749705 </i>
   </energy>
  </scstep>
  <scstep>
   <time name="diag">    1.82    1.82</time>
   <time name="diis">   20.28   20.31</time>
   <time name="orth">    0.43    0.43</time>
   <time name="total">   22.81   22.84</time>
   <energy>
    <i name="e_fr_energy">   -653.49849740 </i>
    <i name="e_wo_entrp">   -653.29806108 </i>
    <i name="e_0_energy">   -653.39827924 </i>
   </energy>
  </scstep>
  <scstep>
   <time name="diag">    1.82    1.82</time>
   <time name="diis">   18.52   18.55</time>
   <time name="orth">    0.43    0.43</time>
   <time name="total">   21.04   21.09</time>
   <energy>
    <i name="e_fr_energy">   -650.75382042 </i>
    <i name="e_wo_entrp">   -650.58502272 </i>
    <i name="e_0_energy">   -650.66942157 </i>
   </energy>
  </scstep>
  <scstep>
   <time name="diag">    1.82    1.82</time>
   <time name="diis">   19.24   19.35</time>
   <time name="orth">    0.43    0.43</time>
   <time name="total">   21.77   21.89</time>
   <energy>
    <i name="e_fr_energy">   -651.06913434 </i>
    <i name="e_wo_entrp">   -650.88241000 </i>
    <i name="e_0_energy">   -650.97577217 </i>
   </energy>
  </scstep>
  <scstep>
   <time name="diag">    1.81    1.82</time>
   <time name="diis">   21.47   21.53</time>
   <time name="orth">    0.43    0.43</time>
   <time name="total">   23.99   24.06</time>
   <energy>
    <i name="e_fr_energy">   -649.52795168 </i>
    <i name="e_wo_entrp">   -649.32023691 </i>
    <i name="e_0_energy">   -649.42409429 </i>
   </energy>
  </scstep>
  <scstep>
   <time name="diag">    1.91    1.99</time>
   <time name="diis">   21.01   21.11</time>
   <time name="orth">    0.43    0.43</time>
   <time name="total">   23.63   23.82</time>
   <energy>
    <i name="e_fr_energy">   -649.09593230 </i>
    <i name="e_wo_entrp">   -648.88936288 </i>
    <i name="e_0_energy">   -648.99264759 </i>
   </energy>
  </scstep>
  <scstep>
   <time name="diag">    1.82    1.82</time>
   <time name="diis">   21.20   21.22</time>
   <time name="orth">    0.43    0.43</time>
   <time name="total">   23.72   23.76</time>
   <energy>
    <i name="e_fr_energy">   -649.00875820 </i>
    <i name="e_wo_entrp">   -648.80094029 </i>
    <i name="e_0_energy">   -648.90484925 </i>
   </energy>
  </scstep>
  <scstep>
   <time name="diag">    1.83    1.83</time>
   <time name="diis">   22.53   22.57</time>
   <time name="orth">    0.43    0.43</time>
   <time name="total">   25.07   25.11</time>
   <energy>
    <i name="e_fr_energy">   -648.99945107 </i>
    <i name="e_wo_entrp">   -648.79087071 </i>
    <i name="e_0_energy">   -648.89516089 </i>
   </energy>
  </scstep>
  <scstep>
   <time name="diag">    1.82    1.82</time>
   <time name="diis">   22.36   22.43</time>
   <time name="orth">    0.42    0.43</time>
   <time name="total">   24.88   24.95</time>
   <energy>
    <i name="e_fr_energy">   -648.97212888 </i>
    <i name="e_wo_entrp">   -648.76236130 </i>
    <i name="e_0_energy">   -648.86724509 </i>
   </energy>
  </scstep>
  <scstep>
   <time name="diag">    1.81    1.82</time>
   <time name="diis">   21.33   21.36</time>
   <time name="orth">    0.42    0.42</time>
   <time name="total">   23.84   23.88</time>
   <energy>
    <i name="e_fr_energy">   -648.97400709 </i>
    <i name="e_wo_entrp">   -648.76584123 </i>
    <i name="e_0_energy">   -648.86992416 </i>
   </energy>
  </scstep>
  <scstep>
   <time name="diag">    1.81    1.81</time>
   <time name="diis">   21.69   21.80</time>
   <time name="orth">    0.42    0.42</time>
   <time name="total">   24.20   24.32</time>
   <energy>
    <i name="e_fr_energy">   -648.94907190 </i>
    <i name="e_wo_entrp">   -648.73843813 </i>
    <i name="e_0_energy">   -648.84375501 </i>
   </energy>
  </scstep>
  <scstep>
   <time name="diag">    1.83    1.83</time>
   <time name="diis">   22.31   22.36</time>
   <time name="orth">    0.46    0.46</time>
   <time name="total">   24.88   24.93</time>
   <energy>
    <i name="e_fr_energy">   -648.95960162 </i>
    <i name="e_wo_entrp">   -648.74960275 </i>
    <i name="e_0_energy">   -648.85460219 </i>
   </energy>
  </scstep>
  <scstep>
   <time name="diag">    1.83    1.83</time>
   <time name="diis">   20.80   20.83</time>
   <time name="orth">    0.42    0.42</time>
   <time name="total">   23.33   23.37</time>
   <energy>
    <i name="e_fr_energy">   -648.95099523 </i>
    <i name="e_wo_entrp">   -648.74043225 </i>
    <i name="e_0_energy">   -648.84571374 </i>
   </energy>
  </scstep>
  <scstep>
   <time name="diag">    1.82    1.82</time>
   <time name="diis">   22.43   22.46</time>
   <time name="orth">    0.42    0.42</time>
   <time name="total">   24.95   24.98</time>
   <energy>
    <i name="e_fr_energy">   -648.95207709 </i>
    <i name="e_wo_entrp">   -648.74172570 </i>
    <i name="e_0_energy">   -648.84690139 </i>
   </energy>
  </scstep>
  <scstep>
   <time name="diag">    1.81    1.81</time>
   <time name="diis">   21.26   21.28</time>
   <time name="orth">    0.43    0.43</time>
   <time name="total">   23.78   23.80</time>
   <energy>
    <i name="e_fr_energy">   -648.95243844 </i>
    <i name="e_wo_entrp">   -648.74207335 </i>
    <i name="e_0_energy">   -648.84725590 </i>
   </energy>
  </scstep>
  <scstep>
   <time name="diag">    1.81    1.82</time>
   <time name="diis">   21.31   21.43</time>
   <time name="orth">    0.43    0.43</time>
   <time name="total">   23.83   23.95</time>
   <energy>
    <i name="e_fr_energy">   -648.95190010 </i>
    <i name="e_wo_entrp">   -648.74157543 </i>
    <i name="e_0_energy">   -648.84673776 </i>
   </energy>
  </scstep>
  <scstep>
   <time name="diag">    1.82    1.82</time>
   <time name="diis">   20.39   20.45</time>
   <time name="orth">    0.43    0.43</time>
   <time name="total">   22.93   22.99</time>
   <energy>
    <i name="e_fr_energy">   -648.95181896 </i>
    <i name="e_wo_entrp">   -648.74149990 </i>
    <i name="e_0_energy">   -648.84665943 </i>
   </energy>
  </scstep>
  <scstep>
   <time name="diag">    1.84    1.86</time>
   <time name="diis">   18.86   18.89</time>
   <time name="orth">    0.43    0.43</time>
   <time name="total">   21.41   21.47</time>
   <energy>
    <i name="e_fr_energy">   -648.95186141 </i>
    <i name="e_wo_entrp">   -648.74153406 </i>
    <i name="e_0_energy">   -648.84669773 </i>
   </energy>
  </scstep>
  <scstep>
   <time name="diag">    1.81    1.82</time>
   <time name="diis">   18.21   18.24</time>
   <time name="orth">    0.42    0.42</time>
   <time name="total">   20.73   20.76</time>
   <energy>
    <i name="e_fr_energy">   -648.95185595 </i>
    <i name="e_wo_entrp">   -648.74153789 </i>
    <i name="e_0_energy">   -648.84669692 </i>
   </energy>
  </scstep>
  <scstep>
   <time name="diag">    1.81    1.81</time>
   <time name="diis">   14.65   14.67</time>
   <time name="orth">    0.43    0.43</time>
   <time name="total">   16.92   16.95</time>
   <energy>
    <i name="alphaZ">   4547.43075546 </i>
    <i name="ewald"> -37522.55416949 </i>
    <i name="hartreedc">  -6279.20465705 </i>
    <i name="XCdc">   1230.18081151 </i>
    <i name="pawpsdc">  27760.19823062 </i>
    <i name="pawaedc"> -27404.18414007 </i>
    <i name="eentropy">     -0.21030891 </i>
    <i name="bandstr">  -4269.04508820 </i>
    <i name="atom">  41288.43670683 </i>
    <i name="e_fr_energy">   -648.95185930 </i>
    <i name="e_wo_entrp">   -648.74155039 </i>
    <i name="e_0_energy">   -648.84670485 </i>
   </energy>
  </scstep>
  <structure>
   <crystal>
    <varray name="basis" >
     <v>       8.76132013      -0.00402249      -0.00231132 </v>
     <v>       0.00156482       8.86161531       0.00040482 </v>
     <v>       0.02918118      -0.01501968       8.77353274 </v>
    </varray>
    <i name="volume">    681.17295089 </i>
    <varray name="rec_basis" >
     <v>       0.11413794      -0.00002014      -0.00037966 </v>
     <v>       0.00005186       0.11284623       0.00019301 </v>
[...]
      </set>
     </set>
    </set>
   </array>
  </eigenvalues>
  <separator name="orbital magnetization" >
   <v name="MAGDIPOLOUT">      0.00000000      0.00000000      0.00000000</v>
  </separator>
  <dos>
   <i name="efermi">      7.91263247 </i>
   <total>
    <array>
     <dimension dim="1">gridpoints</dimension>
     <dimension dim="2">spin</dimension>
     <field>energy</field>
     <field>total</field>
     <field>integrated</field>
     <set>
      <set comment="spin 1">
       <r>   -44.0126     0.0000     0.0000 </r>
       <r>   -43.8194     0.0000     0.0000 </r>
       <r>   -43.6261     0.0000     0.0000 </r>
       <r>   -43.4328     0.0000     0.0000 </r>
       <r>   -43.2395     0.0000     0.0000 </r>
       <r>   -43.0462     0.0000     0.0000 </r>
       <r>   -42.8529     0.0000     0.0000 </r>
       <r>   -42.6597     0.0000     0.0000 </r>
       <r>   -42.4664     0.0000     0.0000 </r>
       <r>   -42.2731     0.0000     0.0000 </r>
       <r>   -42.0798     0.0000     0.0000 </r>
       <r>   -41.8865     0.0000     0.0000 </r>
       <r>   -41.6933     0.0000     0.0000 </r>
       <r>   -41.5000     0.4479     0.0866 </r>
       <r>   -41.3067    14.1354     2.8187 </r>
       <r>   -41.1134    15.7456     5.8620 </r>
       <r>   -40.9201     6.2167     7.0636 </r>
       <r>   -40.7268    23.2574    11.5589 </r>
       <r>   -40.5336     2.4864    12.0394 </r>
       <r>   -40.3403     7.5625    13.5011 </r>
       <r>   -40.1470     2.5776    13.9993 </r>
       <r>   -39.9537     0.0034    14.0000 </r>
       <r>   -39.7604     0.0000    14.0000 </r>
       <r>   -39.5672     0.0000    14.0000 </r>
       <r>   -39.3739     0.0000    14.0000 </r>
       <r>   -39.1806     0.0000    14.0000 </r>
       <r>   -38.9873     0.0000    14.0000 </r>
       <r>   -38.7940     0.0000    14.0000 </r>
       <r>   -38.6007     0.0000    14.0000 </r>
       <r>   -38.4075     0.0000    14.0000 </r>
       <r>   -38.2142     0.0000    14.0000 </r>
       <r>   -38.0209     0.0000    14.0000 </r>
       <r>   -37.8276     0.0000    14.0000 </r>
       <r>   -37.6343     0.0000    14.0000 </r>
       <r>   -37.4411     0.0000    14.0000 </r>
       <r>   -37.2478     0.0000    14.0000 </r>
       <r>   -37.0545     0.0000    14.0000 </r>
       <r>   -36.8612     0.0000    14.0000 </r>
       <r>   -36.6679     0.0000    14.0000 </r>
       <r>   -36.4746     0.0000    14.0000 </r>
       <r>   -36.2814     0.0000    14.0000 </r>
       <r>   -36.0881     0.0451    14.0087 </r>
       <r>   -35.8948     6.5250    15.2699 </r>
       <r>   -35.7015    43.9076    23.7564 </r>
       <r>   -35.5082   101.6993    43.4131 </r>
       <r>   -35.3149    32.0309    49.6041 </r>
       <r>   -35.1217     2.0472    49.9998 </r>
       <r>   -34.9284     0.0011    50.0000 </r>
       <r>   -34.7351     0.0000    50.0000 </r>
       <r>   -34.5418     0.0000    50.0000 </r>
       <r>   -34.3485     0.0000    50.0000 </r>
       <r>   -34.1553     0.0000    50.0000 </r>
       <r>   -33.9620     0.0000    50.0000 </r>
       <r>   -33.7687     0.0000    50.0000 </r>
       <r>   -33.5754     0.0000    50.0000 </r>
       <r>   -33.3821     0.0000    50.0000 </r>
       <r>   -33.1888     0.0000    50.0000 </r>
       <r>   -32.9956     0.0000    50.0000 </r>
       <r>   -32.8023     0.0000    50.0000 </r>
       <r>   -32.6090     0.0000    50.0000 </r>
       <r>   -32.4157     0.0000    50.0000 </r>
       <r>   -32.2224     0.0000    50.0000 </r>
       <r>   -32.0292     0.0253    50.0049 </r>
       <r>   -31.8359     6.0141    51.1673 </r>
       <r>   -31.6426    21.6755    55.3568 </r>
       <r>   -31.4493    41.2865    63.3367 </r>
       <r>   -31.2560    94.2347    81.5506 </r>
       <r>   -31.0627    22.8984    85.9764 </r>
       <r>   -30.8695     0.1219    86.0000 </r>
       <r>   -30.6762     0.0000    86.0000 </r>
       <r>   -30.4829     0.0000    86.0000 </r>
       <r>   -30.2896     0.0000    86.0000 </r>
       <r>   -30.0963     0.0000    86.0000 </r>
       <r>   -29.9030     0.0000    86.0000 </r>
       <r>   -29.7098     0.0000    86.0000 </r>
       <r>   -29.5165     0.0000    86.0000 </r>
       <r>   -29.3232     0.0000    86.0000 </r>
       <r>   -29.1299     0.0000    86.0000 </r>
       <r>   -28.9366     0.0000    86.0000 </r>
       <r>   -28.7434     0.0000    86.0000 </r>
       <r>   -28.5501     0.0000    86.0000 </r>
       <r>   -28.3568     0.0000    86.0000 </r>
       <r>   -28.1635     0.0019    86.0004 </r>
       <r>   -27.9702     2.7484    86.5316 </r>
       <r>   -27.7769    20.0962    90.4158 </r>
       <r>   -27.5837    14.5954    93.2369 </r>
       <r>   -27.3904    69.4878   106.6676 </r>
       <r>   -27.1971    96.6672   125.3517 </r>
       <r>   -27.0038    13.6324   127.9866 </r>
       <r>   -26.8105     0.0696   128.0000 </r>
       <r>   -26.6173     0.0000   128.0000 </r>
       <r>   -26.4240     0.0000   128.0000 </r>
       <r>   -26.2307     0.0000   128.0000 </r>
       <r>   -26.0374     0.0000   128.0000 </r>
       <r>   -25.8441     0.0000   128.0000 </r>
       <r>   -25.6508     0.0000   128.0000 </r>
       <r>   -25.4576     0.0000   128.0000 </r>
       <r>   -25.2643     0.0000   128.0000 </r>
       <r>   -25.0710     0.0000   128.0000 </r>
       <r>   -24.8777     0.0000   128.0000 </r>
       <r>   -24.6844     0.0000   128.0000 </r>
       <r>   -24.4912     0.0000   128.0000 </r>
       <r>   -24.2979     0.0000   128.0000 </r>
       <r>   -24.1046     0.0000   128.0000 </r>
       <r>   -23.9113     0.0000   128.0000 </r>
       <r>   -23.7180     0.0000   128.0000 </r>
       <r>   -23.5247     0.0000   128.0000 </r>
       <r>   -23.3315     0.0000   128.0000 </r>
       <r>   -23.1382     0.0000   128.0000 </r>
       <r>   -22.9449     0.0000   128.0000 </r>
       <r>   -22.7516     0.0000   128.0000 </r>
       <r>   -22.5583     0.0000   128.0000 </r>
       <r>   -22.3650     0.0000   128.0000 </r>
       <r>   -22.1718     0.0000   128.0000 </r>
       <r>   -21.9785     0.0000   128.0000 </r>
       <r>   -21.7852     0.0000   128.0000 </r>
       <r>   -21.5919     0.0000   128.0000 </r>
       <r>   -21.3986     0.0000   128.0000 </r>
       <r>   -21.2054     0.0000   128.0000 </r>
       <r>   -21.0121     0.0000   128.0000 </r>
       <r>   -20.8188     0.0000   128.0000 </r>
       <r>   -20.6255     0.0000   128.0000 </r>
       <r>   -20.4322     0.0000   128.0000 </r>
       <r>   -20.2389     0.0009   128.0002 </r>
       <r>   -20.0457     1.5578   128.3013 </r>
       <r>   -19.8524    11.0277   130.4327 </r>
       <r>   -19.6591    27.0609   135.6631 </r>
       <r>   -19.4658    39.4576   143.2896 </r>
       <r>   -19.2725    35.6702   150.1840 </r>
       <r>   -19.0793    64.9540   162.7384 </r>
       <r>   -18.8860    10.7588   164.8179 </r>
       <r>   -18.6927    25.0171   169.6532 </r>
       <r>   -18.4994     1.7937   169.9999 </r>
       <r>   -18.3061     0.0003   170.0000 </r>
       <r>   -18.1128     0.0000   170.0000 </r>
       <r>   -17.9196     0.0000   170.0000 </r>
       <r>   -17.7263     0.0000   170.0000 </r>
       <r>   -17.5330     0.0000   170.0000 </r>
       <r>   -17.3397     0.0000   170.0000 </r>
       <r>   -17.1464     0.0000   170.0000 </r>
       <r>   -16.9532     0.0000   170.0000 </r>
       <r>   -16.7599     0.0000   170.0000 </r>
       <r>   -16.5666     0.0000   170.0000 </r>
       <r>   -16.3733     0.0000   170.0000 </r>
       <r>   -16.1800     0.0000   170.0000 </r>
       <r>   -15.9867     0.0000   170.0000 </r>
       <r>   -15.7935     0.0000   170.0000 </r>
       <r>   -15.6002     0.0000   170.0000 </r>
       <r>   -15.4069     0.0000   170.0000 </r>
       <r>   -15.2136     0.0000   170.0000 </r>
       <r>   -15.0203     0.0000   170.0000 </r>
       <r>   -14.8270     0.0000   170.0000 </r>
       <r>   -14.6338     0.0000   170.0000 </r>
       <r>   -14.4405     0.0000   170.0000 </r>
       <r>   -14.2472     0.0000   170.0000 </r>
       <r>   -14.0539     0.0000   170.0000 </r>
       <r>   -13.8606     0.0000   170.0000 </r>
       <r>   -13.6674     0.0000   170.0000 </r>
       <r>   -13.4741     0.0000   170.0000 </r>
       <r>   -13.2808     0.0000   170.0000 </r>
       <r>   -13.0875     0.0000   170.0000 </r>
       <r>   -12.8942     0.0000   170.0000 </r>
       <r>   -12.7009     0.0000   170.0000 </r>
       <r>   -12.5077     0.0000   170.0000 </r>
       <r>   -12.3144     0.0000   170.0000 </r>
       <r>   -12.1211     0.0000   170.0000 </r>
       <r>   -11.9278     0.0000   170.0000 </r>
       <r>   -11.7345     0.0000   170.0000 </r>
       <r>   -11.5413     0.0000   170.0000 </r>
       <r>   -11.3480     0.0000   170.0000 </r>
       <r>   -11.1547     0.0000   170.0000 </r>
       <r>   -10.9614     0.0000   170.0000 </r>
       <r>   -10.7681     0.0000   170.0000 </r>
       <r>   -10.5748     0.0000   170.0000 </r>
       <r>   -10.3816     0.0000   170.0000 </r>
       <r>   -10.1883     0.0000   170.0000 </r>
       <r>    -9.9950     0.0000   170.0000 </r>
       <r>    -9.8017     0.0000   170.0000 </r>
       <r>    -9.6084     0.0000   170.0000 </r>
       <r>    -9.4152     0.0000   170.0000 </r>
       <r>    -9.2219     0.0000   170.0000 </r>
       <r>    -9.0286     0.0000   170.0000 </r>
       <r>    -8.8353     0.0001   170.0000 </r>
       <r>    -8.6420     0.1734   170.0335 </r>
       <r>    -8.4487     4.5073   170.9047 </r>
       <r>    -8.2555     7.8808   172.4279 </r>
       <r>    -8.0622     8.9771   174.1630 </r>
       <r>    -7.8689     9.2656   175.9539 </r>
       <r>    -7.6756     8.5602   177.6084 </r>
       <r>    -7.4823     9.6548   179.4745 </r>
       <r>    -7.2890    14.5435   182.2855 </r>
       <r>    -7.0958    18.4047   185.8428 </r>
       <r>    -6.9025    26.3933   190.9442 </r>
       <r>    -6.7092    17.9920   194.4217 </r>
       <r>    -6.5159     7.9138   195.9513 </r>
       <r>    -6.3226     0.2519   196.0000 </r>
       <r>    -6.1294     0.0000   196.0000 </r>
       <r>    -5.9361     0.0000   196.0000 </r>
       <r>    -5.7428     0.0000   196.0000 </r>
       <r>    -5.5495     0.0000   196.0000 </r>
       <r>    -5.3562     0.0819   196.0158 </r>
       <r>    -5.1629     4.3118   196.8492 </r>
       <r>    -4.9697     5.8272   197.9755 </r>
       <r>    -4.7764     4.2108   198.7894 </r>
       <r>    -4.5831    12.8131   201.2659 </r>
       <r>    -4.3898    11.8459   203.5555 </r>
       <r>    -4.1965    17.0918   206.8591 </r>
       <r>    -4.0033    21.2645   210.9691 </r>
       <r>    -3.8100    17.7203   214.3941 </r>
       <r>    -3.6167    22.0965   218.6650 </r>
       <r>    -3.4234    23.4584   223.1991 </r>
       <r>    -3.2301    20.9736   227.2529 </r>
       <r>    -3.0368    15.7274   230.2927 </r>
       <r>    -2.8436    10.7212   232.3650 </r>
       <r>    -2.6503     7.0099   233.7199 </r>
       <r>    -2.4570     1.3483   233.9804 </r>
       <r>    -2.2637     0.1011   234.0000 </r>
       <r>    -2.0704     0.0001   234.0000 </r>
       <r>    -1.8772     0.0000   234.0000 </r>
       <r>    -1.6839     0.0000   234.0000 </r>
       <r>    -1.4906     0.0000   234.0000 </r>
       <r>    -1.2973     0.0000   234.0000 </r>
       <r>    -1.1040     0.0000   234.0000 </r>
       <r>    -0.9107     0.0000   234.0000 </r>
       <r>    -0.7175     0.0128   234.0025 </r>
       <r>    -0.5242     0.3333   234.0669 </r>
       <r>    -0.3309     1.1676   234.2926 </r>
       <r>    -0.1376     3.4844   234.9660 </r>
       <r>     0.0557     8.7972   236.6664 </r>
       <r>     0.2490     9.6775   238.5369 </r>
       <r>     0.4422    14.4529   241.3304 </r>
       <r>     0.6355    18.3820   244.8833 </r>
       <r>     0.8288    21.9213   249.1203 </r>
       <r>     1.0221    26.2717   254.1981 </r>
       <r>     1.2154    23.6133   258.7621 </r>
       <r>     1.4086    28.7422   264.3175 </r>
       <r>     1.6019    28.3687   269.8007 </r>
       <r>     1.7952    31.2072   275.8325 </r>
       <r>     1.9885    32.5920   282.1319 </r>
       <r>     2.1818    40.4943   289.9587 </r>
       <r>     2.3751    48.0054   299.2373 </r>
       <r>     2.5683    53.2474   309.5291 </r>
       <r>     2.7616    58.8160   320.8972 </r>
       <r>     2.9549    64.7635   333.4148 </r>
       <r>     3.1482    67.9564   346.5495 </r>
       <r>     3.3415    64.9666   359.1064 </r>
       <r>     3.5347    57.9308   370.3034 </r>
       <r>     3.7280    51.1853   380.1966 </r>
       <r>     3.9213    43.5103   388.6064 </r>
       <r>     4.1146    35.4187   395.4522 </r>
       <r>     4.3079    32.3897   401.7125 </r>
       <r>     4.5012    31.0844   407.7206 </r>
       <r>     4.6944    30.4412   413.6043 </r>
       <r>     4.8877    23.1400   418.0768 </r>
       <r>     5.0810    18.2626   421.6067 </r>
       <r>     5.2743    13.8232   424.2784 </r>
       <r>     5.4676     9.8678   426.1857 </r>
       <r>     5.6608    12.8526   428.6699 </r>
       <r>     5.8541    18.5410   432.2535 </r>
       <r>     6.0474    18.4399   435.8176 </r>
       <r>     6.2407    19.0879   439.5070 </r>
       <r>     6.4340    18.3331   443.0504 </r>
       <r>     6.6273    21.1310   447.1347 </r>
       <r>     6.8205    23.6416   451.7042 </r>
       <r>     7.0138    27.8350   457.0842 </r>
       <r>     7.2071    27.8923   462.4753 </r>
       <r>     7.4004    29.5592   468.1885 </r>
       <r>     7.5937    28.9140   473.7771 </r>
       <r>     7.7870    26.2010   478.8413 </r>
       <r>     7.9802    25.7504   483.8184 </r>
       <r>     8.1735    28.3447   489.2969 </r>
       <r>     8.3668    34.9035   496.0431 </r>
       <r>     8.5601    40.2429   503.8213 </r>
       <r>     8.7534    45.1126   512.5408 </r>
       <r>     8.9466    46.9985   521.6248 </r>
       <r>     9.1399    48.8240   531.0616 </r>
       <r>     9.3332    46.2725   540.0052 </r>
       <r>     9.5265    44.0865   548.5264 </r>
       <r>     9.7198    41.1262   556.4753 </r>
       <r>     9.9131    41.0352   564.4067 </r>
       <r>    10.1063    42.4610   572.6136 </r>
       <r>    10.2996    42.8858   580.9027 </r>
       <r>    10.4929    45.0013   589.6006 </r>
       <r>    10.6862    44.8234   598.2642 </r>
       <r>    10.8795    48.8658   607.7091 </r>
       <r>    11.0727    45.6141   616.5254 </r>
       <r>    11.2660    30.6553   622.4506 </r>
       <r>    11.4593     7.8541   623.9686 </r>
       <r>    11.6526     0.1624   624.0000 </r>
       <r>    11.8459     0.0000   624.0000 </r>
       <r>    12.0392     0.0000   624.0000 </r>
       <r>    12.2324     0.0000   624.0000 </r>
       <r>    12.4257     0.0000   624.0000 </r>
       <r>    12.6190     0.0000   624.0000 </r>
       <r>    12.8123     0.0000   624.0000 </r>
       <r>    13.0056     0.0000   624.0000 </r>
       <r>    13.1989     0.0000   624.0000 </r>
       <r>    13.3921     0.0000   624.0000 </r>
       <r>    13.5854     0.0000   624.0000 </r>
       <r>    13.7787     0.0000   624.0000 </r>
       <r>    13.9720     0.0000   624.0000 </r>
      </set>
     </set>
    </array>
   </total>
  </dos>
 </calculation>
 <structure name="finalpos" >
  <crystal>
   <varray name="basis" >
    <v>       8.81150758      -0.00362194      -0.00785326 </v>
    <v>       0.00194458       8.86685973      -0.00316166 </v>
    <v>       0.02382976      -0.01835312       8.89708936 </v>
   </varray>
   <i name="volume">    695.13437717 </i>
   <varray name="rec_basis" >
    <v>       0.11348768      -0.00002500      -0.00030401 </v>
    <v>       0.00004656       0.11277957       0.00023252 </v>
    <v>       0.00010019       0.00004006       0.11239612 </v>
   </varray>
  </crystal>
  <varray name="positions" >
   <v>       0.99811761       0.98742836       0.00625007 </v>
   <v>       0.25385137       0.99139906       0.26199412 </v>
   <v>       0.24846588       0.51208315       0.24337031 </v>
   <v>       0.50622736       0.49354180       0.99217099 </v>
   <v>       0.49756199       0.24245347       0.74965700 </v>
   <v>      -0.00355083       0.50283532       0.50527065 </v>
   <v>       0.50609441       0.75908235       0.73648470 </v>
   <v>       0.99211144       0.22956172       0.26625476 </v>
   <v>       0.76445494       0.74323388      -0.00461683 </v>
   <v>       0.01936446       0.23895162       0.73720669 </v>
   <v>       0.76446541       0.24671005       0.48547922 </v>
   <v>       0.00249362       0.74177571       0.75777815 </v>
   <v>       0.25095239       0.50711790       0.75453249 </v>
   <v>       0.24467234       0.24889402       0.99694012 </v>
   <v>       0.50246836       0.24928985       0.25057211 </v>
   <v>       0.73688199       0.98943416       0.26361095 </v>
   <v>       0.75568248       0.25052912       0.98680369 </v>
   <v>       0.26666689       0.75836069       0.99961561 </v>
   <v>       0.25776340       0.25363105       0.50286391 </v>
   <v>       0.24527957       0.75375164       0.50237290 </v>
   <v>       0.24377665       0.25048340       0.25167896 </v>
   <v>       0.24119924       0.00275161       0.00967034 </v>
   <v>      -0.00071170       0.23468559       0.01213968 </v>
   <v>       0.75450825       0.24753371       0.24564643 </v>
   <v>       0.74789722       0.99126335      -0.00170175 </v>
   <v>       0.49042455       0.99013586       0.23734470 </v>
   <v>       0.00330158       0.48228191       0.26254925 </v>
   <v>       0.51516755       0.75273511      -0.01778651 </v>
   <v>       0.98834250      -0.00174508       0.76255282 </v>
   <v>       0.75475570       0.23946443       0.73964039 </v>
   <v>       0.74532221       0.01019263       0.51668346 </v>
   <v>       0.51344229       0.24562858       0.50479571 </v>
   <v>       0.50928463       0.00110689       0.74665610 </v>
   <v>      -0.00139500      -0.00254967       0.26122490 </v>
   <v>       0.50270681       0.25173593      -0.00549839 </v>
   <v>       0.25595736       0.75197605       0.25190707 </v>
   <v>       0.24272224       0.50394222       0.99802275 </v>
   <v>       0.00657970       0.74167684       0.00294721 </v>
   <v>       0.74193882       0.73728384       0.24192513 </v>
   <v>       0.76284697       0.50419638       0.00772577 </v>
   <v>       0.49254791       0.51204100       0.24315160 </v>
   <v>       0.25600228       0.24210514       0.74966170 </v>
   <v>       0.25721724       0.00285568       0.51327153 </v>
   <v>       0.00266065       0.25773021       0.50468811 </v>
   <v>       0.25274988       0.76170903       0.75048473 </v>
   <v>       0.24870498       0.50412087       0.50012104 </v>
   <v>       0.98837305       0.75431207       0.50589467 </v>
   <v>       0.99813889       0.49124757       0.75321882 </v>
   <v>       0.75614926       0.76181469       0.74270341 </v>
   <v>       0.74645845       0.48790802       0.50913344 </v>
   <v>       0.50595371       0.76582545       0.49392301 </v>
   <v>       0.50028272       0.50175817       0.74395290 </v>
   <v>       0.52309086       0.02373043       0.97529216 </v>
   <v>       0.99012994       0.52936149       0.96654103 </v>
   <v>       0.51125086       0.73574644       0.28422086 </v>
   <v>       0.21385239       0.00037550       0.72562613 </v>
   <v>       0.48030717       0.00121042       0.48568772 </v>
   <v>       0.72631047       0.97530420       0.77444726 </v>
   <v>      -0.00703344       0.76743524       0.23982960 </v>
   <v>       0.72655072       0.50492006       0.25944470 </v>
   <v>       0.00338633       0.01569508       0.51479416 </v>
   <v>       0.50214739       0.51620927       0.49087752 </v>
   <v>       0.74929114       0.52402133       0.75927052 </v>
   <v>       0.74738489       0.72771792       0.49102789 </v>
  </varray>
 </structure>
</modeling>
