HECN                                    
           1
     8.932500    0.000000    0.000000
     0.005753    9.055598    0.000000
     0.032102   -0.015743    8.937128
   Ta   W    Zr   N    C    Cr   Mo
   7   6   7  13  19   6   6
Direct configuration=     1
   0.99688001  0.99204997  0.99924002
   0.25398003  0.99714995  0.24912000
   0.24803003  0.50165000  0.24955001
   0.50501006  0.49745998  0.99834003
   0.50479003  0.24631001  0.74710002
   0.99427992  0.50449999  0.49779000
   0.49950005  0.75481999  0.74817004
   0.99437004  0.23617001  0.26379999
   0.75718000  0.74102998  0.01100000
   0.00201000  0.25541000  0.73894001
   0.75307001  0.26163001  0.50533002
   0.99514004  0.74492004  0.74511997
   0.25679999  0.49462002  0.74545002
   0.24788999  0.24839000  0.99657997
   0.50833000  0.25676999  0.25376001
   0.74879004  0.98787999  0.26967001
   0.75719000  0.25603001  0.99591997
   0.24762001  0.74973999  0.99974006
   0.25272001  0.24823001  0.50015003
   0.24457999  0.75048999  0.49983999
   0.24982001  0.24942998  0.24825000
   0.26146999  0.99984002  0.99295996
   0.00281000  0.25024000  0.00130000
   0.75313998  0.24617000  0.25492002
   0.74767001  0.99748000  0.01202000
   0.50714994  0.99977000  0.24673000
   0.99051999  0.48088002  0.24100998
   0.50519005  0.76130999  0.00855000
   0.98896989  0.00202000  0.73708999
   0.75744996  0.24437997  0.74896999
   0.73632001  0.00417000  0.51063000
   0.50563996  0.23264999  0.49544997
   0.50008998  0.00061000  0.73471998
   0.99720000  0.99771992  0.25899999
   0.50427997  0.24673000  0.00262000
   0.25133999  0.74958002  0.24910999
   0.24328000  0.50072997  0.99510994
   0.99837005  0.74313996  0.00460000
   0.75633000  0.73891003  0.25767000
   0.75839004  0.50315998  0.00288000
   0.50700002  0.50333002  0.25878999
   0.24900999  0.25315000  0.74854000
   0.24446000  0.99823996  0.50287998
   0.99804009  0.24229999  0.50128003
   0.24177002  0.75340997  0.75018002
   0.25841001  0.50062002  0.50129001
   0.99000004  0.76215003  0.49746000
   0.99203996  0.50055999  0.75138002
   0.75036005  0.74888000  0.74756004
   0.74036002  0.50197000  0.50067003
   0.50575006  0.74958002  0.49720000
   0.50501003  0.50217998  0.73912003
   0.51588997  0.01358000  0.98075008
   0.99841994  0.50976998  0.98613004
   0.50379003  0.73926997  0.25905001
   0.23780002  0.01082000  0.74607998
   0.47957999  0.98308000  0.49717999
   0.74279003  0.97869994  0.76450995
   0.99864998  0.77573999  0.26102000
   0.73551001  0.51468004  0.26666001
   0.02362000  0.99783001  0.49557002
   0.50539000  0.52833005  0.49917999
   0.73876003  0.52828003  0.73814999
   0.75400003  0.72937999  0.49116997
HECN                                    
           1
     8.582744   -0.008219   -0.004723
    -0.002804    8.659251    0.000827
     0.026134   -0.014265    8.602869
   Ta   W    Zr   N    C    Cr   Mo
   7   6   7  13  19   6   6
Direct configuration=     2
   0.99562900  0.99120188  0.99582362
   0.25588166  0.99331613  0.24850792
   0.25034856  0.50613674  0.24729879
   0.50478342  0.49518231  0.99755382
   0.50234608  0.24263175  0.74920564
   0.99441136  0.50020057  0.50077091
   0.49834545  0.76033769  0.74831612
   0.99509906  0.23311818  0.26649608
   0.76009173  0.73949145  0.01049823
   0.00909418  0.25815307  0.73445571
   0.75476584  0.26159561  0.50662073
   0.99762302  0.74258513  0.74753291
   0.25604503  0.49718503  0.74976377
   0.24897322  0.24812762  0.99598235
   0.50729434  0.25103083  0.25254973
   0.74155305  0.99158839  0.26910100
   0.75546815  0.25465443  0.99394127
   0.25017877  0.75104233  0.99888666
   0.25518913  0.24918715  0.50124714
   0.24793003  0.75054187  0.50042768
   0.24821622  0.24937758  0.24899519
   0.25756865  0.00005523  0.99578783
   0.00219285  0.24684554  0.00216088
   0.75711130  0.24704612  0.25671321
   0.74997755  0.99418971  0.00534227
   0.49780292  0.99750384  0.24769951
   0.99584044  0.47829200  0.24464135
   0.50842938  0.75829288  0.00476077
   0.98758130  0.00298393  0.74416446
   0.75513083  0.24247910  0.74549739
   0.73636646  0.00643410  0.51365275
   0.50790733  0.23114097  0.50279604
   0.50310053  0.00103429  0.73830752
   0.00350168  0.00337164  0.25046559
   0.50394579  0.24963386 -0.00416173
   0.25371018  0.74954700  0.24959823
   0.24575673  0.49950046  0.99678161
   0.99344676  0.74377219  0.00267530
   0.75157272  0.74018403  0.24954656
   0.75703030  0.50791265  0.00304386
   0.49701641  0.50904732  0.25213938
   0.25025286  0.25028813  0.74821905
   0.25499502  0.99826010  0.50454736
   0.99392699  0.24666467  0.50223118
   0.24464263  0.75336422  0.75005798
   0.25202725  0.49967417  0.49911774
   0.99159471  0.75580422  0.50320206
   0.99424585  0.49935995  0.75146774
   0.74863404  0.75846733  0.75100122
   0.74731632  0.49490254  0.50332859
   0.50423802  0.75776135  0.49633558
   0.49916363  0.49975418  0.74570183
   0.51771468  0.01754073  0.97730280
   0.99699268  0.51728847  0.98114215
   0.50493958  0.73520731  0.26077754
   0.23516610  0.01030704  0.74660684
   0.47717039  0.98241998  0.49756598
   0.73949053  0.97378772  0.76588172
   0.00057874  0.77526484  0.25777381
   0.73570223  0.51343694  0.25935186
   0.01931199  0.99922050  0.49730219
   0.50189397  0.52660626  0.49708370
   0.74023389  0.52371370  0.74506677
   0.75551082  0.73495280  0.49334637
HECN                                    
           1
     8.761320   -0.004022   -0.002311
     0.001565    8.861615    0.000405
     0.029181   -0.015020    8.773533
   Ta   W    Zr   N    C    Cr   Mo
   7   6   7  13  19   6   6
Direct configuration=     3
   0.99629521  0.99165516  0.99763604
   0.25487334  0.99536218  0.24883182
   0.24911489  0.50373978  0.24849241
   0.50490526  0.49639853  0.99797078
   0.50364602  0.24459708  0.74808932
   0.99434286  0.50249631  0.49918954
   0.49895609  0.75739214  0.74823926
   0.99471245  0.23474746  0.26506567
   0.75854544  0.74031144  0.01076345
   0.00532970  0.25668460  0.73683231
   0.75386435  0.26161319  0.50593563
   0.99630411  0.74383071  0.74625222
   0.25644360  0.49581608  0.74747606
   0.24839793  0.24826714  0.99629901
   0.50784799  0.25409567  0.25319168
   0.74539688  0.98961194  0.26940511
   0.75638440  0.25538967  0.99499123
   0.24881868  0.75034562  0.99933863
   0.25387627  0.24867490  0.50066455
   0.24614969  0.75051251  0.50011499
   0.24906825  0.24940641  0.24860040
   0.25964079 -0.00005756  0.99428905
   0.00252229  0.24865835  0.00170427
   0.75500005  0.24657641  0.25576097
   0.74875504  0.99594501  0.00888337
   0.50277061  0.99871861  0.24718788
   0.99301354  0.47967137  0.24271355
   0.50671075  0.75990200  0.00676952
   0.98831658  0.00247033  0.74041254
   0.75636517  0.24349504  0.74733987
   0.73633972  0.00522534  0.51204955
   0.50670111  0.23194595  0.49889886
   0.50149951  0.00080642  0.73640379
   0.00015270  0.00035030  0.25499079
   0.50412386  0.24808316 -0.00056438
   0.25245058  0.74956346  0.24933857
   0.24444079  0.50015579  0.99589415
   0.99606313  0.74343700  0.00369765
   0.75410237  0.73950575  0.25385677
   0.75775033  0.50537569  0.00295758
   0.50232049  0.50599928  0.25567014
   0.24959400  0.25181556  0.74838878
   0.24939643  0.99824412  0.50365989
   0.99611007  0.24433631  0.50172810
   0.24311625  0.75338719  0.75012187
   0.25542004  0.50018230  0.50027175
   0.99074892  0.75919203  0.50015562
   0.99307428  0.49999960  0.75142051
   0.74954524  0.75334930  0.74917697
   0.74362276  0.49867280  0.50191607
   0.50503751  0.75339370  0.49679494
   0.50226960  0.50105273  0.74221235
   0.51674403  0.01542482  0.97913095
   0.99774868  0.51327448  0.98378858
   0.50433033  0.73737605  0.25986070
   0.23656582  0.01058229  0.74632813
   0.47845103  0.98277363  0.49736192
   0.74124595  0.97641230  0.76515483
  -0.00044496  0.77551739  0.25949504
   0.73560288  0.51410019  0.26322807
   0.02159995  0.99848033  0.49638476
   0.50375319  0.52752832  0.49819653
   0.73945104  0.52615149  0.74139737
   0.75470450  0.73197659  0.49219183
HECN                                    
           1
     8.806208   -0.009801   -0.005176
    -0.004269    8.866607    0.000926
     0.026486   -0.014534    8.826181
   Ta   W    Zr   N    C    Cr   Mo
   7   6   7  13  19   6   6
Direct configuration=     4
   0.99598806  0.99147499  0.99256640
   0.25748646  0.99186981  0.24857286
   0.25110520  0.50783644  0.24541260
   0.50389952  0.49439578  0.99734696
   0.50057428  0.24051392  0.75021713
   0.99601189  0.49783817  0.50162822
   0.49770629  0.76334582  0.74847997
   0.99616422  0.23276210  0.26668989
   0.76009106  0.74076603  0.00935416
   0.01302491  0.25883344  0.73438764
   0.75444366  0.26061067  0.50668992
   0.99910458  0.74181028  0.75017869
   0.25425652  0.49927927  0.75269246
   0.24933247  0.24761063  0.99635816
   0.50601190  0.24919530  0.25186913
   0.73992676  0.99312844  0.26778127
   0.75471310  0.25365340  0.99290062
   0.25164066  0.75201101  0.99860458
   0.25629202  0.24937224  0.50103979
   0.24908618  0.75078568  0.50069789
   0.24732762  0.24938487  0.24925708
   0.25612502  0.00005421  0.99683218
   0.00183233  0.24524826  0.00286842
   0.75828472  0.24798806  0.25672913
   0.74992921  0.99268104  0.00148789
   0.49316553  0.99556763  0.24736220
   0.99836131  0.47858273  0.24600333
   0.50976463  0.75749013  0.00270232
   0.98669543  0.00355397  0.74783039
   0.75427908  0.24159449  0.74412830
   0.73732912  0.00665091  0.51662469
   0.50920464  0.23084208  0.50571945
   0.50480899  0.00094777  0.74095145
   0.00464108  0.00520932  0.24634582
   0.50354656  0.25070064 -0.00626808
   0.25576342  0.74953757  0.24954277
   0.24607541  0.49927919  0.99778537
   0.99391929  0.74355691  0.00222585
   0.74850641  0.74215321  0.24666314
   0.75749518  0.50791066  0.00335324
   0.49255733  0.51123847  0.24898257
   0.25150314  0.24787474  0.74836851
   0.25949734  0.99844911  0.50672714
   0.99414656  0.24847350  0.50225451
   0.24655488  0.75424484  0.75031113
   0.24907254  0.49946510  0.49805494
   0.99322404  0.75270325  0.50541284
   0.99542744  0.49823169  0.75254171
   0.74816132  0.76250305  0.75202888
   0.74904752  0.49297456  0.50386572
   0.50417960  0.76263315  0.49508798
   0.49680039  0.49893443  0.74796426
   0.51832124  0.01927336  0.97547321
   0.99633375  0.52197373  0.97823364
   0.50471980  0.73366544  0.26208401
   0.23286003  0.00900376  0.74678417
   0.47715809  0.98324241  0.49737090
   0.73696382  0.97265600  0.76709488
   0.00110832  0.77287982  0.25488560
   0.73541405  0.51027492  0.25437548
   0.01686269  0.00051421  0.49871010
   0.50058945  0.52346832  0.49541684
   0.74131238  0.52087662  0.75111516
   0.75426990  0.73841822  0.49524267
HECN                                    
           1
     8.806835   -0.009882   -0.005216
    -0.004351    8.866677    0.000933
     0.026448   -0.014527    8.826917
   Ta   W    Zr   N    C    Cr   Mo
   7   6   7  13  19   6   6
Direct configuration=     5
   0.99598376  0.99147247  0.99249593
   0.25752278  0.99182103  0.24856927
   0.25113291  0.50789371  0.24536980
   0.50388550  0.49436779  0.99733828
   0.50053152  0.24045683  0.75024670
   0.99603508  0.49777308  0.50166213
   0.49768896  0.76342901  0.74848330
   0.99618441  0.23273437  0.26671247
   0.76011256  0.74077240  0.00933458
   0.01313198  0.25886354  0.73435369
   0.75445172  0.26059667  0.50670041
   0.99914354  0.74178207  0.75023329
   0.25422615  0.49932764  0.75276495
   0.24934547  0.24760146  0.99635899
   0.50598631  0.24912680  0.25185074
   0.73985069  0.99317753  0.26775867
   0.75468982  0.25362912  0.99287156
   0.25167993  0.75203431  0.99859439
   0.25632563  0.24938201  0.50104502
   0.24912703  0.75078953  0.50070601
   0.24730341  0.24938455  0.24926620
   0.25607612  0.00005574  0.99686751
   0.00182270  0.24520059  0.00288460
   0.75833043  0.24800782  0.25674260
   0.74994548  0.99263544  0.00138511
   0.49303188  0.99552350  0.24736458
   0.99843571  0.47856756  0.24604908
   0.50980708  0.75745646  0.00264580
   0.98667292  0.00356909  0.74793349
   0.75425003  0.24156791  0.74408365
   0.73734292  0.00667084  0.51668829
   0.50923949  0.23082667  0.50581427
   0.50485505  0.00094977  0.74101467
   0.00470353  0.00527727  0.24622567
   0.50353853  0.25073722 -0.00634736
   0.25580951  0.74953724  0.24954563
   0.24609815  0.49926695  0.99781167
   0.99388946  0.74355857  0.00220538
   0.74842855  0.74219017  0.24656312
   0.75749166  0.50794608  0.00335874
   0.49242153  0.51131160  0.24888957
   0.25152966  0.24781968  0.74836824
   0.25963788  0.99845206  0.50676982
   0.99411929  0.24853130  0.50226182
   0.24660273  0.75425686  0.75031377
   0.24898422  0.49945502  0.49802410
   0.99325844  0.75261258  0.50548594
   0.99546017  0.49820701  0.75255731
   0.74814217  0.76263096  0.75206851
   0.74912295  0.49289498  0.50389285
   0.50416775  0.76276227  0.49506424
   0.49672431  0.49890477  0.74804419
   0.51834320  0.01932716  0.97542238
   0.99631412  0.52209529  0.97815641
   0.50472520  0.73361359  0.26211492
   0.23280846  0.00898166  0.74679049
   0.47714011  0.98324895  0.49737102
   0.73690422  0.97260347  0.76712183
   0.00112989  0.77284298  0.25482154
   0.73541135  0.51022147  0.25425243
   0.01679682  0.00054259  0.49874240
   0.50054538  0.52341155  0.49537820
   0.74133827  0.52080291  0.75125025
   0.75426392  0.73850824  0.49528507
HECN                                    
           1
     8.838261   -0.008274   -0.007578
    -0.002690    8.919258   -0.001181
     0.024184   -0.016716    8.849077
   Ta   W    Zr   N    C    Cr   Mo
   7   6   7  13  19   6   6
Direct configuration=     6
   0.99670300  0.99080444  0.98955021
   0.25682842  0.99010974  0.25117710
   0.24974569  0.50924150  0.24388037
   0.50348935  0.49369339  0.99672363
   0.49797965  0.23905425  0.75040061
   0.99791024  0.49792364  0.50183985
   0.49842893  0.76394321  0.74674909
   0.99614030  0.23348137  0.26815559
   0.76018452  0.74196450  0.00831949
   0.01692845  0.25835742  0.73532252
   0.75409993  0.25915780  0.50603786
   0.99992062  0.73990571  0.75203863
   0.25266176  0.50048655  0.75497003
   0.24785680  0.24657414  0.99699335
   0.50542648  0.25034209  0.25181117
   0.74030968  0.99280330  0.26718067
   0.75518474  0.25297985  0.99141467
   0.25247013  0.75300097  0.99869012
   0.25621817  0.24915944  0.50099239
   0.24814023  0.75078770  0.50100214
   0.24703742  0.24914854  0.24969726
   0.25396025  0.00030766  0.99861492
   0.00129475  0.24217205  0.00327699
   0.75823475  0.24885862  0.25613787
   0.74906659  0.99215944 -0.00192822
   0.49233872  0.99424934  0.24667705
   0.00052504  0.47941110  0.24892502
   0.51041142  0.75649691 -0.00101942
   0.98680169  0.00411328  0.74961596
   0.75403950  0.24221526  0.74318015
   0.74008326  0.00606833  0.51745132
   0.51028412  0.23215477  0.50619674
   0.50698279  0.00033940  0.74423504
   0.00346371  0.00246077  0.24489936
   0.50330687  0.25147264 -0.00544717
   0.25747244  0.74998266  0.24933217
   0.24549365  0.50029586  0.99854832
   0.99753207  0.74481387  0.00244825
   0.74578026  0.74210220  0.24744937
   0.75865424  0.50579735  0.00387764
   0.49399756  0.51074174  0.24732163
   0.25299075  0.24624041  0.74868283
   0.25912678  0.99905166  0.50942155
   0.99674418  0.24873635  0.50191239
   0.24836049  0.75528311  0.75061433
   0.24775902  0.50016467  0.49755286
   0.99385174  0.75113571  0.50574529
   0.99606872  0.49694539  0.75382190
   0.74931879  0.76027192  0.75126005
   0.74763430  0.49546086  0.50323272
   0.50591474  0.76261126  0.49342010
   0.49678015  0.49968929  0.74748993
   0.52013353  0.02116919  0.97342298
   0.99516387  0.52763728  0.97407043
   0.50432784  0.73200543  0.26632217
   0.22791241  0.00669802  0.74541472
   0.47887886  0.98603178  0.49675627
   0.73269059  0.97390012  0.76928988
  -0.00058521  0.77386477  0.25270956
   0.73072404  0.51007907  0.25143377
   0.01728567  0.00113408  0.49916609
   0.50163909  0.52313085  0.49340194
   0.74104884  0.52246754  0.75653253
   0.75284299  0.73715811  0.49558606
HECN                                    
           1
     8.851769   -0.007583   -0.008593
    -0.001976    8.941859   -0.002090
     0.023210   -0.017657    8.858601
   Ta   W    Zr   N    C    Cr   Mo
   7   6   7  13  19   6   6
Direct configuration=     7
   0.99701077  0.99051863  0.98828722
   0.25653146  0.98937884  0.25229498
   0.24915125  0.50981737  0.24324175
   0.50331966  0.49340519  0.99645998
   0.49688680  0.23845515  0.75046617
   0.99871339  0.49798784  0.50191628
   0.49874562  0.76416269  0.74600568
   0.99612151  0.23380072  0.26877441
   0.76021513  0.74247378  0.00788440
   0.01855464  0.25814096  0.73573829
   0.75394930  0.25854294  0.50575359
   0.00025381  0.73910407  0.75281257
   0.25199189  0.50098211  0.75591542
   0.24721935  0.24613535  0.99726507
   0.50518660  0.25086143  0.25179427
   0.74050624  0.99264329  0.26693286
   0.75539661  0.25270222  0.99079001
   0.25280850  0.75341398  0.99873136
   0.25617216  0.24906434  0.50096980
   0.24771762  0.75078703  0.50112899
   0.24692356  0.24904776  0.24988203
   0.25305419  0.00041566  0.99936392
   0.00106891  0.24087803  0.00344485
   0.75819364  0.24922211  0.25587867
   0.74868983  0.99195577 -0.00334898
   0.49204186  0.99370487  0.24638206
   0.00142017  0.47977168  0.25015842
   0.51066993  0.75608648 -0.00259094
   0.98685699  0.00434598  0.75033741
   0.75394918  0.24249180  0.74279281
   0.74125709  0.00581074  0.51777872
   0.51073147  0.23272222  0.50636099
   0.50789453  0.00007876  0.74561598
   0.00293276  0.00125724  0.24433027
   0.50320770  0.25178700 -0.00506116
   0.25818462  0.75017284  0.24924089
   0.24523473  0.50073564  0.99886420
   0.99909214  0.74535000  0.00255293
   0.74464610  0.74206491  0.24782904
   0.75915241  0.50487917  0.00410004
   0.49467246  0.51049795  0.24664948
   0.25361670  0.24556551  0.74881771
   0.25890812  0.99930819  0.51055851
   0.99786837  0.24882373  0.50176289
   0.24911329  0.75572151  0.75074350
   0.24723415  0.50046794  0.49735075
   0.99410600  0.75050463  0.50585640
   0.99632962  0.49640639  0.75436404
   0.74982285  0.75926373  0.75091331
   0.74699641  0.49655732  0.50294978
   0.50666281  0.76254643  0.49271534
   0.49680394  0.50002446  0.74725237
   0.52089995  0.02195595  0.97256612
   0.99467030  0.53000504  0.97231898
   0.50415826  0.73131873  0.26812584
   0.22581544  0.00572246  0.74482406
   0.47962328  0.98722068  0.49649318
   0.73088601  0.97445474  0.77021910
  -0.00132011  0.77430129  0.25180394
   0.72871614  0.51001830  0.25022470
   0.01749504  0.00138683  0.49934787
   0.50210733  0.52301062  0.49255470
   0.74092534  0.52317940  0.75879749
   0.75223454  0.73658135  0.49571482
HECN                                    
           1
     8.808773   -0.007028   -0.008119
    -0.001441    8.906676   -0.006518
     0.023532   -0.021982    8.822630
   Ta   W    Zr   N    C    Cr   Mo
   7   6   7  13  19   6   6
Direct configuration=     8
   0.99774743  0.98991661  0.98667548
   0.25619904  0.98847274  0.25516138
   0.24857293  0.51071545  0.24252174
   0.50290198  0.49307034  0.99524101
   0.49485059  0.23802803  0.75061531
   0.99917577  0.49820392  0.50213361
   0.50030833  0.76351753  0.74406194
   0.99536760  0.23262210  0.26932523
   0.76124790  0.74320349  0.00685414
   0.02088194  0.25716707  0.73636904
   0.75462791  0.25917826  0.50450444
   0.00044772  0.73790854  0.75319435
   0.25114040  0.50216325  0.75720579
   0.24601156  0.24569374  0.99803744
   0.50492735  0.25147384  0.25204322
   0.74062128  0.99227004  0.26665185
   0.75586680  0.25187200  0.98942753
   0.25479502  0.75454759  0.99869482
   0.25652285  0.24935501  0.50122411
   0.24766499  0.75110494  0.50148780
   0.24673367  0.24880813  0.25031555
   0.25082403  0.00060321  0.00111492
   0.00062420  0.23758261  0.00351709
   0.75775156  0.24958200  0.25508995
   0.74792205  0.99148319 -0.00516495
   0.49223935  0.99338340  0.24578563
   0.00331939  0.47995553  0.25339942
   0.51117123  0.75505195 -0.00627296
   0.98762718  0.00473280  0.75036552
   0.75375614  0.24306329  0.74204915
   0.74404868  0.00582915  0.51734091
   0.51148550  0.23409359  0.50633451
   0.50942250 -0.00037369  0.74747254
   0.00149545  0.00099128  0.24472233
   0.50296145  0.25204732 -0.00403355
   0.25886438  0.75044697  0.24949202
   0.24426043  0.50148606  0.99903557
   0.00103104  0.74701074  0.00290496
   0.74260501  0.74153275  0.24840040
   0.76071622  0.50379315  0.00479878
   0.49463762  0.50961199  0.24553346
   0.25496901  0.24457467  0.74920483
   0.25856760  0.99939549  0.51284609
   0.99967211  0.24896929  0.50269620
   0.25043514  0.75644176  0.75086108
   0.24714189  0.50092358  0.49729455
   0.99372049  0.75022754  0.50557742
   0.99616708  0.49534341  0.75461163
   0.75123336  0.75800676  0.75004802
   0.74622200  0.49768613  0.50264500
   0.50738279  0.76204588  0.49166024
   0.49724788  0.50085185  0.74609553
   0.52280108  0.02392256  0.97157412
   0.99338257  0.53401638  0.97003187
   0.50445741  0.73054644  0.27289801
   0.22044037  0.00347929  0.74281982
   0.48025553  0.99001981  0.49568336
   0.72733354  0.97441578  0.77195005
  -0.00332554  0.77413046  0.25053751
   0.72572603  0.51103770  0.24880773
   0.01753098  0.00152057  0.49974129
   0.50277569  0.52241766  0.49112010
   0.74088237  0.52483384  0.76209576
   0.75160451  0.73399298  0.49556846
HECN                                    
           1
     8.808414   -0.007023   -0.008115
    -0.001436    8.906382   -0.006555
     0.023535   -0.022018    8.822331
   Ta   W    Zr   N    C    Cr   Mo
   7   6   7  13  19   6   6
Direct configuration=     9
   0.99775361  0.98991156  0.98666199
   0.25619626  0.98846517  0.25518537
   0.24856809  0.51072296  0.24251572
   0.50289848  0.49306753  0.99523081
   0.49483354  0.23802446  0.75061656
   0.99917964  0.49820573  0.50213543
   0.50032142  0.76351212  0.74404567
   0.99536129  0.23261223  0.26932983
   0.76125655  0.74320959  0.00684552
   0.02090144  0.25715892  0.73637431
   0.75463359  0.25918357  0.50449399
   0.00044934  0.73789854  0.75319754
   0.25113326  0.50217314  0.75721659
   0.24600144  0.24569005  0.99804390
   0.50492518  0.25147897  0.25204531
   0.74062224  0.99226692  0.26664950
   0.75587074  0.25186504  0.98941612
   0.25481167  0.75455708  0.99869451
   0.25652579  0.24935744  0.50122624
   0.24766455  0.75110761  0.50149080
   0.24673208  0.24880612  0.25031917
   0.25080535  0.00060479  0.00112957
   0.00062048  0.23755503  0.00351768
   0.75774785  0.24958501  0.25508335
   0.74791562  0.99147923 -0.00518016
   0.49224100  0.99338070  0.24578063
   0.00333530  0.47995708  0.25342655
   0.51117543  0.75504327 -0.00630378
   0.98763363  0.00473604  0.75036576
   0.75375452  0.24306807  0.74204293
   0.74407207  0.00582930  0.51733725
   0.51149182  0.23410507  0.50633430
   0.50943530 -0.00037747  0.74748808
   0.00148341  0.00098906  0.24472561
   0.50295939  0.25204951 -0.00402495
   0.25887007  0.75044927  0.24949413
   0.24425226  0.50149234  0.99903700
   0.00104728  0.74702464  0.00290792
   0.74258791  0.74152830  0.24840518
   0.76072932  0.50378406  0.00480463
   0.49463733  0.50960457  0.24552411
   0.25498034  0.24456638  0.74920806
   0.25856475  0.99939623  0.51286524
   0.99968722  0.24897052  0.50270401
   0.25044622  0.75644778  0.75086207
   0.24714112  0.50092740  0.49729408
   0.99371726  0.75022522  0.50557509
   0.99616571  0.49533451  0.75461370
   0.75124518  0.75799623  0.75004078
   0.74621551  0.49769558  0.50264245
   0.50738882  0.76204169  0.49165140
   0.49725160  0.50085877  0.74608585
   0.52281701  0.02393901  0.97156583
   0.99337178  0.53404994  0.97001274
   0.50445991  0.73053999  0.27293795
   0.22039534  0.00346051  0.74280304
   0.48026083  0.99004323  0.49567659
   0.72730378  0.97441546  0.77196454
  -0.00334234  0.77412903  0.25052691
   0.72570098  0.51104623  0.24879587
   0.01753128  0.00152169  0.49974459
   0.50278129  0.52241269  0.49110809
   0.74088201  0.52484770  0.76212337
   0.75159923  0.73397132  0.49556722
HECN                                    
           1
     8.812631   -0.007669   -0.005208
    -0.002101    8.900367   -0.011061
     0.026469   -0.026457    8.837418
   Ta   W    Zr   N    C    Cr   Mo
   7   6   7  13  19   6   6
Direct configuration=    10
   0.99822827  0.98978875  0.98691762
   0.25636833  0.98887132  0.25723559
   0.24867662  0.51080457  0.24271892
   0.50250430  0.49329155  0.99396375
   0.49432409  0.23880529  0.75072557
   0.99866753  0.49833680  0.50219523
   0.50190717  0.76194102  0.74251379
   0.99441479  0.23095601  0.26895522
   0.76225035  0.74383045  0.00598558
   0.02080111  0.25579704  0.73719720
   0.75586914  0.26116994  0.50294333
   0.00032670  0.73834624  0.75224144
   0.25101820  0.50319564  0.75717027
   0.24556887  0.24594841  0.99871263
   0.50488097  0.25100529  0.25231940
   0.74007636  0.99213580  0.26665199
   0.75598924  0.25109904  0.98855332
   0.25750173  0.75557986  0.99860827
   0.25735567  0.24999523  0.50154727
   0.24829523  0.75134310  0.50188654
   0.24647461  0.24862763  0.25071462
   0.24915635  0.00077047  0.00234279
   0.00039268  0.23515713  0.00349381
   0.75721429  0.24947015  0.25428896
   0.74762682  0.99105039 -0.00500315
   0.49266166  0.99360113  0.24526416
   0.00430519  0.47978993  0.25572368
   0.51151950  0.75423500 -0.00886304
   0.98820593  0.00481925  0.74890666
   0.75363282  0.24324484  0.74150843
   0.74609200  0.00638145  0.51627009
   0.51188846  0.23514145  0.50631627
   0.50956954 -0.00038457  0.74727190
   0.00064103  0.00218496  0.24592543
   0.50274785  0.25183435 -0.00350622
   0.25868328  0.75046268  0.25008329
   0.24313027  0.50178897  0.99875829
   0.00148302  0.74849083  0.00306127
   0.74139349  0.74132853  0.24801221
   0.76213077  0.50376116  0.00559494
   0.49265557  0.50908344  0.24465623
   0.25569738  0.24409016  0.74962223
   0.25900418  0.99924811  0.51433457
   0.00013698  0.24916737  0.50403562
   0.25108814  0.75686882  0.75073278
   0.24794497  0.50104563  0.49766084
   0.99289664  0.75084815  0.50504013
   0.99539793  0.49470993  0.75388747
   0.75241163  0.75875221  0.74938329
   0.74666627  0.49687888  0.50290641
   0.50701915  0.76218038  0.49178148
   0.49764315  0.50128394  0.74488499
   0.52371830  0.02515228  0.97225226
   0.99254715  0.53482536  0.97061880
   0.50529112  0.73118725  0.27624673
   0.21678164  0.00164261  0.74097674
   0.47993254  0.99231855  0.49506138
   0.72631766  0.97357504  0.77229660
  -0.00485219  0.77258009  0.25041027
   0.72600456  0.51177956  0.24878858
   0.01630292  0.00151399  0.50042928
   0.50220097  0.52053567  0.49084495
   0.74148112  0.52482468  0.76271355
   0.75173838  0.73191055  0.49522757
HECN                                    
           1
     8.816912   -0.008325   -0.002257
    -0.002776    8.894258   -0.015637
     0.029449   -0.030964    8.852738
   Ta   W    Zr   N    C    Cr   Mo
   7   6   7  13  19   6   6
Direct configuration=    11
   0.99870994  0.98966413  0.98717652
   0.25654232  0.98928505  0.25931406
   0.24878670  0.51088760  0.24292492
   0.50210466  0.49351852  0.99267958
   0.49380706  0.23959873  0.75083664
   0.99814777  0.49846997  0.50225608
   0.50351701  0.76034394  0.74095957
   0.99345416  0.22927283  0.26857494
   0.76325934  0.74446097  0.00511385
   0.02069891  0.25441361  0.73803069
   0.75712381  0.26318764  0.50137205
   0.00020257  0.73880066  0.75127250
   0.25090151  0.50423458  0.75712389
   0.24512963  0.24621124  0.99939079
   0.50483596  0.25052410  0.25259702
   0.73952231  0.99200252  0.26665463
   0.75610974  0.25032027  0.98767826
   0.26023210  0.75661928  0.99852047
   0.25819789  0.25064351  0.50187275
   0.24893523  0.75158263  0.50228762
   0.24621315  0.24844644  0.25111548
   0.24748232  0.00093932  0.00357326
   0.00016130  0.23272054  0.00346845
   0.75667301  0.24935300  0.25348381
   0.74733361  0.99061471 -0.00482384
   0.49308879  0.99382489  0.24474060
   0.00528881  0.47962131  0.25805187
   0.51186949  0.75341245 -0.01145788
   0.98878727  0.00490312  0.74742743
   0.75350949  0.24342417  0.74096675
   0.74814252  0.00694211  0.51518793
   0.51229112  0.23619455  0.50629841
   0.50970587 -0.00039188  0.74705271
  -0.00021425  0.00340067  0.24714259
   0.50253297  0.25161598 -0.00298043
   0.25849349  0.75047658  0.25068059
   0.24199162  0.50209016  0.99847630
   0.00192534  0.74998075  0.00321734
   0.74018132  0.74112526  0.24761415
   0.76355291  0.50373839  0.00639561
   0.49064444  0.50855333  0.24377686
   0.25642495  0.24360653  0.75004158
   0.25944968  0.99909838  0.51582380
   0.00059303  0.24936811  0.50538543
   0.25173973  0.75729663  0.75060173
   0.24876071  0.50116602  0.49803241
   0.99206397  0.75148078  0.50449845
   0.99461887  0.49407485  0.75315123
   0.75359579  0.75952013  0.74871679
   0.74712362  0.49604919  0.50317341
   0.50664392  0.76232135  0.49191354
   0.49804099  0.50171539  0.74366777
   0.52463292  0.02638551  0.97294843
   0.99171005  0.53561352  0.97123384
   0.50613370  0.73184666  0.27960089
   0.21311440 -0.00020578  0.73912569
   0.47959973  0.99463021  0.49443903
   0.72531664  0.97272117  0.77263311
  -0.00638469  0.77100602  0.25029173
   0.72631273  0.51252474  0.24878147
   0.01505598  0.00150643  0.50112376
   0.50161192  0.51862822  0.49057743
   0.74208898  0.52480163  0.76331160
   0.75187956  0.72981641  0.49488215
HECN                                    
           1
     8.839564   -0.008902   -0.002224
    -0.003351    8.910536   -0.015599
     0.029562   -0.030968    8.862755
   Ta   W    Zr   N    C    Cr   Mo
   7   6   7  13  19   6   6
Direct configuration=    12
   0.99857616  0.98947812  0.98814300
   0.25653426  0.98973741  0.26032472
   0.24846644  0.51108863  0.24303880