<?xml version="1.0" encoding="ISO-8859-1"?>
<modeling>
 <generator>
  <i name="program" type="string">vasp </i>
  <i name="version" type="string">5.4.4.18Apr17-6-g9f103f2a35  </i>
  <i name="subversion" type="string">(build Oct 18 2021 20:38:43) complex            parallel </i>
  <i name="platform" type="string">LinuxIFC </i>
  <i name="date" type="string">2024 06 22 </i>
  <i name="time" type="string">10:19:42 </i>
 </generator>
 <incar>
  <i type="string" name="SYSTEM">HECN</i>
  <i type="int" name="ISTART">     0</i>
  <i type="string" name="PREC">normal</i>
  <i type="string" name="ALGO">Fast</i>
  <i type="int" name="ICHARG">     2</i>
  <i type="int" name="NELM">    60</i>
  <i type="int" name="IBRION">     2</i>
  <i name="EDIFF">      0.00001000</i>
  <i name="EDIFFG">     -0.01000000</i>
  <i type="int" name="NSW">   100</i>
  <i type="int" name="ISIF">     3</i>
  <i name="ENCUT">    400.00000000</i>
  <i name="POTIM">      0.50000000</i>
  <i type="logical" name="LREAL"> F  </i>
  <i type="int" name="ISMEAR">     0</i>
  <i name="SIGMA">      0.10000000</i>
  <i type="logical" name="LWAVE"> F  </i>
  <i type="logical" name="LCHARG"> F  </i>
  <v type="int" name="KPOINT_BSE">    -1     0     0     0</v>
  <i type="int" name="NELM">    60</i>
 </incar>
 <structure name="primitive_cell" >
  <crystal>
   <varray name="basis" >
    <v>       8.84890764       0.01383233       0.01367721 </v>
    <v>       0.01989653       8.85083594       0.00023037 </v>
    <v>       0.04552330      -0.01504682       8.85711093 </v>
   </varray>
   <i name="volume">    693.68304115 </i>
   <varray name="rec_basis" >
    <v>       0.11300959      -0.00025403      -0.00058127 </v>
    <v>      -0.00017691       0.11298407       0.00019285 </v>
    <v>      -0.00017451      -0.00000255       0.11290453 </v>
   </varray>
  </crystal>
  <varray name="positions" >
   <v>       0.00084635       0.00413800      -0.00149475 </v>
   <v>      -0.24799054       0.00592679       0.01857771 </v>
   <v>      -0.00297750       0.25501464       0.00325181 </v>
   <v>      -0.01476184       0.00330171      -0.25746931 </v>
   <v>      -0.00618180       0.00232203       0.25676170 </v>
   <v>       0.26135438       0.00447378      -0.01269146 </v>
   <v>       0.00415566      -0.25667510       0.00593328 </v>
   <v>       0.23336631       0.00237141      -0.26083577 </v>
   <v>      -0.01278064       0.23652537       0.25698220 </v>
   <v>      -0.26230772      -0.01518972      -0.22659447 </v>
   <v>       0.00707115      -0.22655206       0.25927939 </v>
   <v>      -0.23631426      -0.25437261       0.00887228 </v>
   <v>       0.00066700       0.26131340      -0.24963515 </v>
   <v>       0.22841971      -0.27273520       0.00540758 </v>
   <v>       0.26110612       0.00656893       0.24303960 </v>
   <v>       0.00026817      -0.25332347      -0.25127340 </v>
   <v>      -0.26539715       0.24582314      -0.00575045 </v>
   <v>       0.25593351       0.26458383      -0.02118564 </v>
   <v>      -0.25707389      -0.01557736       0.28144857 </v>
   <v>      -0.25583189       0.23501276       0.24160669 </v>
   <v>       0.24184263      -0.24284575      -0.24477072 </v>
   <v>      -0.24428893       0.24125452      -0.24674693 </v>
   <v>       0.24131883       0.24774712       0.24680413 </v>
   <v>       0.24768396       0.24956834      -0.25189831 </v>
   <v>      -0.25041026      -0.24724094      -0.24861139 </v>
   <v>       0.25434765      -0.25045262       0.24525656 </v>
   <v>      -0.24761718      -0.25472586       0.25235622 </v>
   <v>      -0.47858002       0.01373226      -0.01634508 </v>
   <v>      -0.00197922       0.49983323      -0.01382390 </v>
   <v>       0.02384057       0.00258068       0.49982078 </v>
   <v>      -0.48308664      -0.00326884       0.23506214 </v>
   <v>      -0.25209111       0.00127585      -0.47875653 </v>
   <v>      -0.24174885       0.49078257       0.00996063 </v>
   <v>      -0.00658834       0.49493412       0.24431478 </v>
   <v>       0.24401470       0.49646205      -0.00454713 </v>
   <v>       0.49461071       0.24610900       0.00655436 </v>
   <v>       0.00239912       0.24755085      -0.49722322 </v>
   <v>       0.49944864      -0.23832132       0.00955345 </v>
   <v>       0.00175813      -0.23961198      -0.49880922 </v>
   <v>       0.49178193       0.00251105      -0.26378938 </v>
   <v>       0.00280667      -0.49655034      -0.24965398 </v>
   <v>       0.26823183       0.00111846      -0.49754374 </v>
   <v>       0.23508665       0.23995853      -0.48259386 </v>
   <v>      -0.47250382       0.26389495       0.24848875 </v>
   <v>      -0.24602812      -0.48197712      -0.23582910 </v>
   <v>       0.49350390      -0.24229384      -0.24464887 </v>
   <v>      -0.24721677       0.25280868       0.48940534 </v>
   <v>       0.24662802       0.49043902       0.25187709 </v>
   <v>       0.24863137      -0.23991595       0.49328666 </v>
   <v>      -0.49590514       0.24835436      -0.25791822 </v>
   <v>      -0.25563112      -0.25707659       0.48908290 </v>
   <v>       0.25413220      -0.49846558      -0.25564767 </v>
   <v>      -0.26370721       0.49580610       0.26068751 </v>
   <v>       0.49365238      -0.26009393       0.25617416 </v>
   <v>      -0.48760732      -0.01355942       0.47544798 </v>
   <v>      -0.49720641       0.49655010       0.00091911 </v>
   <v>      -0.00164763      -0.49658374      -0.49923431 </v>
   <v>       0.49920253       0.23871004       0.48147391 </v>
   <v>       0.49023167      -0.24782643       0.49801604 </v>
   <v>      -0.25633746       0.49780135      -0.49120162 </v>
   <v>       0.49845575       0.49614004       0.25348277 </v>
   <v>       0.25747456       0.49773825      -0.49754559 </v>
   <v>      -0.49643204      -0.49632282      -0.25714271 </v>
   <v>      -0.49604155      -0.47947895       0.49202594 </v>
  </varray>
 </structure>
 <varray name="primitive_index" >
  <v type="int" >        1 </v>
  <v type="int" >       25 </v>
  <v type="int" >       23 </v>
  <v type="int" >       29 </v>
  <v type="int" >       34 </v>
  <v type="int" >       22 </v>
  <v type="int" >       38 </v>
  <v type="int" >       56 </v>
  <v type="int" >        8 </v>
  <v type="int" >       58 </v>
  <v type="int" >       59 </v>
  <v type="int" >        9 </v>
  <v type="int" >       10 </v>
  <v type="int" >       18 </v>
  <v type="int" >        2 </v>
  <v type="int" >       12 </v>
  <v type="int" >       17 </v>
  <v type="int" >       14 </v>
  <v type="int" >       16 </v>
  <v type="int" >       24 </v>
  <v type="int" >       45 </v>
  <v type="int" >       30 </v>
  <v type="int" >       21 </v>
  <v type="int" >       42 </v>
  <v type="int" >       49 </v>
  <v type="int" >       36 </v>
  <v type="int" >       39 </v>
  <v type="int" >       53 </v>
  <v type="int" >       54 </v>
  <v type="int" >       61 </v>
  <v type="int" >       26 </v>
  <v type="int" >       31 </v>
  <v type="int" >       40 </v>
  <v type="int" >       27 </v>
  <v type="int" >       37 </v>
  <v type="int" >       35 </v>
  <v type="int" >       44 </v>
  <v type="int" >       28 </v>
  <v type="int" >       47 </v>
  <v type="int" >       33 </v>
  <v type="int" >       48 </v>
  <v type="int" >       43 </v>
  <v type="int" >       19 </v>
  <v type="int" >       15 </v>
  <v type="int" >       63 </v>
  <v type="int" >        7 </v>
  <v type="int" >       11 </v>
  <v type="int" >        3 </v>
  <v type="int" >       20 </v>
  <v type="int" >        5 </v>
  <v type="int" >       64 </v>
  <v type="int" >       13 </v>
  <v type="int" >       60 </v>
  <v type="int" >       55 </v>
  <v type="int" >       57 </v>
  <v type="int" >        4 </v>
  <v type="int" >        6 </v>
  <v type="int" >       32 </v>
  <v type="int" >       51 </v>
  <v type="int" >       50 </v>
  <v type="int" >       41 </v>
  <v type="int" >       46 </v>
  <v type="int" >       52 </v>
  <v type="int" >       62 </v>
 </varray>
 <kpoints>
  <generation param="Gamma">
   <v type="int" name="divisions">       3        3        3 </v>
   <v name="usershift">      0.00000000       0.00000000       0.00000000 </v>
   <v name="genvec1">      0.33333333       0.00000000       0.00000000 </v>
   <v name="genvec2">     -0.00000000       0.33333333       0.00000000 </v>
   <v name="genvec3">     -0.00000000       0.00000000       0.33333333 </v>
   <v name="shift">      0.00000000       0.00000000       0.00000000 </v>
  </generation>
  <varray name="kpointlist" >
   <v>       0.00000000       0.00000000       0.00000000 </v>
   <v>       0.33333333       0.00000000      -0.00000000 </v>
   <v>       0.00000000       0.33333333      -0.00000000 </v>
   <v>       0.33333333       0.33333333      -0.00000000 </v>
   <v>      -0.33333333       0.33333333       0.00000000 </v>
   <v>       0.00000000       0.00000000       0.33333333 </v>
   <v>       0.33333333       0.00000000       0.33333333 </v>
   <v>      -0.33333333      -0.00000000       0.33333333 </v>
   <v>       0.00000000       0.33333333       0.33333333 </v>
   <v>       0.33333333       0.33333333       0.33333333 </v>
   <v>      -0.33333333       0.33333333       0.33333333 </v>
   <v>       0.00000000      -0.33333333       0.33333333 </v>
   <v>       0.33333333      -0.33333333       0.33333333 </v>
   <v>      -0.33333333      -0.33333333       0.33333333 </v>
  </varray>
  <varray name="weights" >
   <v>       0.03703704 </v>
   <v>       0.07407407 </v>
   <v>       0.07407407 </v>
   <v>       0.07407407 </v>
   <v>       0.07407407 </v>
   <v>       0.07407407 </v>
   <v>       0.07407407 </v>
   <v>       0.07407407 </v>
   <v>       0.07407407 </v>
   <v>       0.07407407 </v>
   <v>       0.07407407 </v>
   <v>       0.07407407 </v>
   <v>       0.07407407 </v>
   <v>       0.07407407 </v>
  </varray>
 </kpoints>
 <parameters>
  <separator name="general" >
   <i type="string" name="SYSTEM">HECN</i>
   <i type="logical" name="LCOMPAT"> F  </i>
  </separator>
  <separator name="electronic" >
   <i type="string" name="PREC">normal</i>
   <i name="ENMAX">    400.00000000</i>
   <i name="ENAUG">    644.87300000</i>
   <i name="EDIFF">      0.00001000</i>
   <i type="int" name="IALGO">    68</i>
   <i type="int" name="IWAVPR">    11</i>
   <i type="int" name="NBANDS">   312</i>
   <i name="NELECT">    502.00000000</i>
   <i type="int" name="TURBO">     0</i>
   <i type="int" name="IRESTART">     0</i>
   <i type="int" name="NREBOOT">     0</i>
   <i type="int" name="NMIN">     0</i>
   <i name="EREF">      0.00000000</i>
   <separator name="electronic smearing" >
    <i type="int" name="ISMEAR">     0</i>
    <i name="SIGMA">      0.10000000</i>
    <i name="KSPACING">      0.50000000</i>
    <i type="logical" name="KGAMMA"> T  </i>
   </separator>
   <separator name="electronic projectors" >
    <i type="logical" name="LREAL"> F  </i>
    <v name="ROPT">      0.00000000      0.00000000      0.00000000      0.00000000      0.00000000      0.00000000      0.00000000</v>
    <i type="int" name="LMAXPAW">  -100</i>
    <i type="int" name="LMAXMIX">     2</i>
    <i type="logical" name="NLSPLINE"> F  </i>
   </separator>
   <separator name="electronic startup" >
    <i type="int" name="ISTART">     0</i>
    <i type="int" name="ICHARG">     2</i>
    <i type="int" name="INIWAV">     1</i>
   </separator>
   <separator name="electronic spin" >
    <i type="int" name="ISPIN">     1</i>
    <i type="logical" name="LNONCOLLINEAR"> F  </i>
    <v name="MAGMOM">      1.00000000      1.00000000      1.00000000      1.00000000      1.00000000      1.00000000      1.00000000      1.00000000      1.00000000      1.00000000      1.00000000      1.00000000      1.00000000      1.00000000      1.00000000      1.00000000      1.00000000      1.00000000      1.00000000      1.00000000
      1.00000000      1.00000000      1.00000000      1.00000000      1.00000000      1.00000000      1.00000000      1.00000000      1.00000000      1.00000000      1.00000000      1.00000000      1.00000000      1.00000000      1.00000000      1.00000000      1.00000000      1.00000000      1.00000000      1.00000000
      1.00000000      1.00000000      1.00000000      1.00000000      1.00000000      1.00000000      1.00000000      1.00000000      1.00000000      1.00000000      1.00000000      1.00000000      1.00000000      1.00000000      1.00000000      1.00000000      1.00000000      1.00000000      1.00000000      1.00000000
      1.00000000      1.00000000      1.00000000      1.00000000</v>
    <i name="NUPDOWN">     -1.00000000</i>
    <i type="logical" name="LSORBIT"> F  </i>
    <v name="SAXIS">      0.00000000      0.00000000      1.00000000</v>
    <i type="logical" name="LSPIRAL"> F  </i>
    <v name="QSPIRAL">      0.00000000      0.00000000      0.00000000</v>
    <i type="logical" name="LZEROZ"> F  </i>
   </separator>
   <separator name="electronic exchange-correlation" >
    <i type="logical" name="LASPH"> F  </i>
    <i type="logical" name="LMETAGGA"> F  </i>
   </separator>
   <separator name="electronic convergence" >
    <i type="int" name="NELM">    60</i>
    <i type="int" name="NELMDL">    -5</i>
    <i type="int" name="NELMIN">     2</i>
    <i name="ENINI">    400.00000000</i>
    <separator name="electronic convergence detail" >
     <i type="logical" name="LDIAG"> T  </i>
     <i type="logical" name="LSUBROT"> F  </i>
     <i name="WEIMIN">      0.00100000</i>
     <i name="EBREAK">      0.00000001</i>
     <i name="DEPER">      0.30000000</i>
     <i type="int" name="NRMM">     4</i>
     <i name="TIME">      0.40000000</i>
    </separator>
   </separator>
   <separator name="electronic mixer" >
    <i name="AMIX">      0.40000000</i>
    <i name="BMIX">      1.00000000</i>
    <i name="AMIN">      0.10000000</i>
    <i name="AMIX_MAG">      1.60000000</i>
    <i name="BMIX_MAG">      1.00000000</i>
    <separator name="electronic mixer details" >
     <i type="int" name="IMIX">     4</i>
     <i type="logical" name="MIXFIRST"> F  </i>
     <i type="int" name="MAXMIX">   -45</i>
     <i name="WC">    100.00000000</i>
     <i type="int" name="INIMIX">     1</i>
     <i type="int" name="MIXPRE">     1</i>
     <i type="int" name="MREMOVE">     5</i>
    </separator>
   </separator>
   <separator name="electronic dipolcorrection" >
    <i type="logical" name="LDIPOL"> F  </i>
    <i type="logical" name="LMONO"> F  </i>
    <i type="int" name="IDIPOL">     0</i>
    <i name="EPSILON">      1.00000000</i>
    <v name="DIPOL">   -100.00000000   -100.00000000   -100.00000000</v>
    <i name="EFIELD">      0.00000000</i>
   </separator>
  </separator>
  <separator name="grids" >
   <i type="int" name="NGX">    48</i>
   <i type="int" name="NGY">    48</i>
   <i type="int" name="NGZ">    48</i>
   <i type="int" name="NGXF">    96</i>
   <i type="int" name="NGYF">    96</i>
   <i type="int" name="NGZF">    96</i>
   <i type="logical" name="ADDGRID"> F  </i>
  </separator>
  <separator name="ionic" >
   <i type="int" name="NSW">   100</i>
   <i type="int" name="IBRION">     2</i>
   <i type="int" name="MDALGO">     0</i>
   <i type="int" name="ISIF">     3</i>
   <i name="PSTRESS">      0.00000000</i>
   <i name="EDIFFG">     -0.01000000</i>
   <i type="int" name="NFREE">     1</i>
   <i name="POTIM">      0.50000000</i>
   <i name="SMASS">     -3.00000000</i>
   <i name="SCALEE">      1.00000000</i>
  </separator>
  <separator name="ionic md" >
   <i name="TEBEG">      0.00010000</i>
   <i name="TEEND">      0.00010000</i>
   <i type="int" name="NBLOCK">     1</i>
   <i type="int" name="KBLOCK">   100</i>
   <i type="int" name="NPACO">   256</i>
   <i name="APACO">     16.00000000</i>
  </separator>
  <separator name="symmetry" >
   <i type="int" name="ISYM">     2</i>
   <i name="SYMPREC">      0.00001000</i>
  </separator>
  <separator name="dos" >
   <i type="int" name="LORBIT">     0</i>
   <v name="RWIGS">     -1.00000000     -1.00000000     -1.00000000     -1.00000000     -1.00000000     -1.00000000     -1.00000000</v>
   <i type="int" name="NEDOS">   301</i>
   <i name="EMIN">     10.00000000</i>
   <i name="EMAX">    -10.00000000</i>
   <i name="EFERMI">      0.00000000</i>
  </separator>
  <separator name="writing" >
   <i type="int" name="NWRITE">     2</i>
   <i type="logical" name="LWAVE"> F  </i>
   <i type="logical" name="LDOWNSAMPLE"> F  </i>
   <i type="logical" name="LCHARG"> F  </i>
   <i type="logical" name="LPARD"> F  </i>
   <i type="logical" name="LVTOT"> F  </i>
   <i type="logical" name="LVHAR"> F  </i>
   <i type="logical" name="LELF"> F  </i>
   <i type="logical" name="LOPTICS"> F  </i>
   <v name="STM">      0.00000000      0.00000000      0.00000000      0.00000000      0.00000000      0.00000000      0.00000000</v>
  </separator>
  <separator name="performance" >
   <i type="int" name="NPAR">    24</i>
   <i type="int" name="NSIM">     4</i>
   <i type="int" name="NBLK">    -1</i>
   <i type="logical" name="LPLANE"> T  </i>
   <i type="logical" name="LSCALAPACK"> T  </i>
   <i type="logical" name="LSCAAWARE"> F  </i>
   <i type="logical" name="LSCALU"> F  </i>
   <i type="logical" name="LASYNC"> F  </i>
   <i type="logical" name="LORBITALREAL"> F  </i>
  </separator>
  <separator name="miscellaneous" >
   <i type="int" name="IDIOT">     3</i>
   <i type="int" name="ISPECIAL">     0</i>
   <i type="logical" name="LMUSIC"> F  </i>
   <v name="POMASS">     91.22400000     92.91000000     50.94100000     14.00100000     12.01100000    183.85000000     95.94000000</v>
   <v name="DARWINR">      0.00000000      0.00000000      0.00000000      0.00000000      0.00000000      0.00000000      0.00000000</v>
   <v name="DARWINV">      1.00000000      1.00000000      1.00000000      1.00000000      1.00000000      1.00000000      1.00000000</v>
   <i type="logical" name="LCORR"> T  </i>
  </separator>
  <i type="logical" name="GGA_COMPAT"> T  </i>
  <i type="logical" name="LBERRY"> F  </i>
  <i type="int" name="ICORELEVEL">     0</i>
  <i type="logical" name="LDAU"> F  </i>
  <i type="int" name="I_CONSTRAINED_M">     0</i>
  <separator name="electronic exchange-correlation" >
   <i type="string" name="GGA">--</i>
   <i type="int" name="VOSKOWN">     0</i>
   <i type="logical" name="LHFCALC"> F  </i>
   <i type="string" name="PRECFOCK"></i>
   <i type="logical" name="LSYMGRAD"> F  </i>
   <i type="logical" name="LHFONE"> F  </i>
   <i type="logical" name="LRHFCALC"> F  </i>
   <i type="logical" name="LTHOMAS"> F  </i>
   <i type="logical" name="LMODELHF"> F  </i>
   <i name="ENCUT4O">     -1.00000000</i>
   <i type="int" name="EXXOEP">     0</i>
   <i type="int" name="FOURORBIT">     0</i>
   <i name="AEXX">      0.00000000</i>
   <i name="HFALPHA">      0.00000000</i>
   <i name="MCALPHA">      0.00000000</i>
   <i name="ALDAX">      1.00000000</i>
   <i name="AGGAX">      1.00000000</i>
   <i name="ALDAC">      1.00000000</i>
   <i name="AGGAC">      1.00000000</i>
   <i type="int" name="NKREDX">     1</i>
   <i type="int" name="NKREDY">     1</i>
   <i type="int" name="NKREDZ">     1</i>
   <i type="logical" name="SHIFTRED"> F  </i>
   <i type="logical" name="ODDONLY"> F  </i>
   <i type="logical" name="EVENONLY"> F  </i>
   <i type="int" name="LMAXFOCK">     0</i>
   <i type="int" name="NMAXFOCKAE">     0</i>
   <i type="logical" name="LFOCKAEDFT"> F  </i>
   <i name="HFSCREEN">      0.00000000</i>
   <i name="HFSCREENC">      0.00000000</i>
   <i type="int" name="NBANDSGWLOW">     0</i>
  </separator>
  <separator name="vdW DFT" >
   <i type="logical" name="LUSE_VDW"> F  </i>
   <i name="Zab_VDW">     -0.84910000</i>
   <i name="PARAM1">      0.12340000</i>
   <i name="PARAM2">      1.00000000</i>
   <i name="PARAM3">      0.00000000</i>
  </separator>
  <separator name="model GW" >
   <i type="int" name="MODEL_GW">     0</i>
   <i name="MODEL_EPS0">      6.50327851</i>
   <i name="MODEL_ALPHA">      1.00000000</i>
  </separator>
  <separator name="linear response parameters" >
   <i type="logical" name="LEPSILON"> F  </i>
   <i type="logical" name="LRPA"> F  </i>
   <i type="logical" name="LNABLA"> F  </i>
   <i type="logical" name="LVEL"> F  </i>
   <i type="int" name="KINTER">     0</i>
   <i name="CSHIFT">      0.10000000</i>
   <i name="OMEGAMAX">     -1.00000000</i>
   <i name="DEG_THRESHOLD">      0.00200000</i>
   <i name="RTIME">     -0.10000000</i>
   <i name="WPLASMAI">      0.00000000</i>
   <v name="DFIELD">      0.00000000      0.00000000      0.00000000</v>
   <v name="WPLASMA">      0.00000000      0.00000000      0.00000000      0.00000000      0.00000000      0.00000000      0.00000000      0.00000000      0.00000000</v>
  </separator>
  <separator name="orbital magnetization" >
   <i type="logical" name="NUCIND"> F  </i>
   <v name="MAGPOS">      0.00000000      0.00000000      0.00000000</v>
   <i type="logical" name="LNICSALL"> T  </i>
   <i type="logical" name="ORBITALMAG"> F  </i>
   <i type="logical" name="LMAGBLOCH"> F  </i>
   <i type="logical" name="LCHIMAG"> F  </i>
   <i type="logical" name="LGAUGE"> T  </i>
   <i type="int" name="MAGATOM">     0</i>
   <v name="MAGDIPOL">      0.00000000      0.00000000      0.00000000</v>
   <v name="AVECCONST">      0.00000000      0.00000000      0.00000000</v>
  </separator>
  <separator name="response functions" >
   <i type="logical" name="LADDER"> F  </i>
   <i type="logical" name="LRPAFORCE"> F  </i>
   <i type="logical" name="LFXC"> F  </i>
   <i type="logical" name="LHARTREE"> T  </i>
   <i type="int" name="IBSE">     0</i>
   <v type="int" name="KPOINT">    -1     0     0     0</v>
   <i type="logical" name="LTCTE"> F  </i>
   <i type="logical" name="LTETE"> F  </i>
   <i type="logical" name="LTRIPLET"> F  </i>
   <i type="logical" name="LFXCEPS"> F  </i>
   <i type="logical" name="LFXHEG"> F  </i>
   <i type="int" name="NATURALO">     2</i>
   <i type="logical" name="L2ORDER"> F  </i>
   <i type="logical" name="LMP2LT"> F  </i>
   <i type="logical" name="LUSEW"> F  </i>
   <i name="ENCUTGW">     -2.00000000</i>
   <i name="ENCUTGWSOFT">     -2.00000000</i>
   <i name="ENCUTLF">     -1.00000000</i>
   <i type="int" name="LMAXMP2">    -1</i>
   <i name="SCISSOR">      0.00000000</i>
   <i type="int" name="NOMEGA">     0</i>
   <i type="int" name="NOMEGAR">     0</i>
   <i type="int" name="NBANDSGW">    -1</i>
   <i type="int" name="NBANDSO">    -1</i>
   <i type="int" name="NBANDSV">    -1</i>
   <i type="int" name="NELM">    60</i>
   <i type="int" name="NELMHF">     1</i>
   <i type="int" name="DIM">     3</i>
   <i type="int" name="ANTIRES">     0</i>
   <i name="OMEGAMAX">    -30.00000000</i>
   <i name="OMEGAMIN">    -30.00000000</i>
   <i name="OMEGATL">   -200.00000000</i>
   <i type="int" name="OMEGAGRID">   140</i>
   <i name="CSHIFT">     -0.10000000</i>
   <i type="logical" name="SELFENERGY"> F  </i>
   <i type="logical" name="LSPECTRAL"> F  </i>
   <i type="logical" name="LSPECTRALGW"> F  </i>
   <i type="logical" name="LSINGLES"> F  </i>
   <i type="logical" name="LFERMIGW"> F  </i>
   <i type="logical" name="ODDONLYGW"> F  </i>
   <i type="logical" name="EVENONLYGW"> F  </i>
   <i type="int" name="NKREDLFX">     1</i>
   <i type="int" name="NKREDLFY">     1</i>
   <i type="int" name="NKREDLFZ">     1</i>
   <i type="int" name="MAXMEM">  2800</i>
   <i type="int" name="TELESCOPE">     0</i>
   <i type="int" name="TAUPAR">     1</i>
   <i type="int" name="OMEGAPAR">    -1</i>
   <i name="LAMBDA">      1.00000000</i>
  </separator>
  <separator name="External order field" >
   <i name="OFIELD_KAPPA">      0.00000000</i>
   <v name="OFIELD_K">      0.00000000      0.00000000      0.00000000</v>
   <i name="OFIELD_Q6_NEAR">      0.00000000</i>
   <i name="OFIELD_Q6_FAR">      0.00000000</i>
   <i name="OFIELD_A">      0.00000000</i>
  </separator>
 </parameters>
 <atominfo>
  <atoms>      64 </atoms>
  <types>       7 </types>
  <array name="atoms" >
   <dimension dim="1">ion</dimension>
   <field type="string">element</field>
   <field type="int">atomtype</field>
   <set>
    <rc><c>Zr</c><c>   1</c></rc>
    <rc><c>Zr</c><c>   1</c></rc>
    <rc><c>Zr</c><c>   1</c></rc>
    <rc><c>Zr</c><c>   1</c></rc>
    <rc><c>Zr</c><c>   1</c></rc>
    <rc><c>Zr</c><c>   1</c></rc>
    <rc><c>Zr</c><c>   1</c></rc>
    <rc><c>Nb</c><c>   2</c></rc>
    <rc><c>Nb</c><c>   2</c></rc>
    <rc><c>Nb</c><c>   2</c></rc>
    <rc><c>Nb</c><c>   2</c></rc>
    <rc><c>Nb</c><c>   2</c></rc>
    <rc><c>Nb</c><c>   2</c></rc>
    <rc><c>V </c><c>   3</c></rc>
    <rc><c>V </c><c>   3</c></rc>
    <rc><c>V </c><c>   3</c></rc>
    <rc><c>V </c><c>   3</c></rc>
    <rc><c>V </c><c>   3</c></rc>
    <rc><c>V </c><c>   3</c></rc>
    <rc><c>V </c><c>   3</c></rc>
    <rc><c>N </c><c>   4</c></rc>
    <rc><c>N </c><c>   4</c></rc>
    <rc><c>N </c><c>   4</c></rc>
    <rc><c>N </c><c>   4</c></rc>
    <rc><c>N </c><c>   4</c></rc>
    <rc><c>N </c><c>   4</c></rc>
    <rc><c>N </c><c>   4</c></rc>
    <rc><c>N </c><c>   4</c></rc>
    <rc><c>N </c><c>   4</c></rc>
    <rc><c>N </c><c>   4</c></rc>
    <rc><c>N </c><c>   4</c></rc>
    <rc><c>N </c><c>   4</c></rc>
    <rc><c>N </c><c>   4</c></rc>
    <rc><c>C </c><c>   5</c></rc>
    <rc><c>C </c><c>   5</c></rc>
    <rc><c>C </c><c>   5</c></rc>
    <rc><c>C </c><c>   5</c></rc>
    <rc><c>C </c><c>   5</c></rc>
    <rc><c>C </c><c>   5</c></rc>
    <rc><c>C </c><c>   5</c></rc>
    <rc><c>C </c><c>   5</c></rc>
    <rc><c>C </c><c>   5</c></rc>
    <rc><c>C </c><c>   5</c></rc>
    <rc><c>C </c><c>   5</c></rc>
    <rc><c>C </c><c>   5</c></rc>
    <rc><c>C </c><c>   5</c></rc>
    <rc><c>C </c><c>   5</c></rc>
    <rc><c>C </c><c>   5</c></rc>
    <rc><c>C </c><c>   5</c></rc>
    <rc><c>C </c><c>   5</c></rc>
    <rc><c>C </c><c>   5</c></rc>
    <rc><c>C </c><c>   5</c></rc>
    <rc><c>W </c><c>   6</c></rc>
    <rc><c>W </c><c>   6</c></rc>
    <rc><c>W </c><c>   6</c></rc>
    <rc><c>W </c><c>   6</c></rc>
    <rc><c>W </c><c>   6</c></rc>
    <rc><c>W </c><c>   6</c></rc>
    <rc><c>Mo</c><c>   7</c></rc>
    <rc><c>Mo</c><c>   7</c></rc>
    <rc><c>Mo</c><c>   7</c></rc>
    <rc><c>Mo</c><c>   7</c></rc>
    <rc><c>Mo</c><c>   7</c></rc>
    <rc><c>Mo</c><c>   7</c></rc>
   </set>
  </array>
  <array name="atomtypes" >
   <dimension dim="1">type</dimension>
   <field type="int">atomspertype</field>
   <field type="string">element</field>
   <field>mass</field>
   <field>valence</field>
   <field type="string">pseudopotential</field>
   <set>
    <rc><c>   7</c><c>Zr</c><c>     91.22400000</c><c>     12.00000000</c><c> PAW_PBE Zr_sv 07Sep2000                </c></rc>
    <rc><c>   6</c><c>Nb</c><c>     92.91000000</c><c>     13.00000000</c><c> PAW_PBE Nb_sv 17Jan2003                </c></rc>
    <rc><c>   7</c><c>V </c><c>     50.94100000</c><c>     13.00000000</c><c> PAW_PBE V_sv 07Sep2000                 </c></rc>
    <rc><c>  13</c><c>N </c><c>     14.00100000</c><c>      5.00000000</c><c> PAW_PBE N 08Apr2002                    </c></rc>
    <rc><c>  19</c><c>C </c><c>     12.01100000</c><c>      4.00000000</c><c> PAW_PBE C 08Apr2002                    </c></rc>
    <rc><c>   6</c><c>W </c><c>    183.85000000</c><c>     12.00000000</c><c> PAW_PBE W_pv 06Sep2000                 </c></rc>
    <rc><c>   6</c><c>Mo</c><c>     95.94000000</c><c>      6.00000000</c><c> PAW_PBE Mo 08Apr2002                   </c></rc>
   </set>
  </array>
 </atominfo>
 <structure name="initialpos" >
  <crystal>
   <varray name="basis" >
    <v>       8.84890764       0.01383233       0.01367721 </v>
    <v>       0.01989653       8.85083594       0.00023037 </v>
    <v>       0.04552330      -0.01504682       8.85711093 </v>
   </varray>
   <i name="volume">    693.68304115 </i>
   <varray name="rec_basis" >
    <v>       0.11300959      -0.00025403      -0.00058127 </v>
    <v>      -0.00017691       0.11298407       0.00019285 </v>
    <v>      -0.00017451      -0.00000255       0.11290453 </v>
   </varray>
  </crystal>
  <varray name="positions" >
   <v>       0.00084635       0.00413800       0.99850525 </v>
   <v>       0.26110612       0.00656893       0.24303960 </v>
   <v>       0.24662802       0.49043902       0.25187709 </v>
   <v>       0.50279359       0.49655010       0.00091911 </v>
   <v>       0.50409486       0.24835436       0.74208178 </v>
   <v>       0.99835237       0.50341626       0.50076569 </v>
   <v>       0.49350390       0.75770616       0.75535113 </v>
   <v>       0.98721936       0.23652537       0.25698220 </v>
   <v>       0.76368574       0.74562739       0.00887228 </v>
   <v>       0.00066700       0.26131340       0.75036485 </v>
   <v>       0.75278323       0.25280868       0.48940534 </v>
   <v>       0.00026817       0.74667653       0.74872660 </v>
   <v>       0.25413220       0.50153442       0.74435233 </v>
   <v>       0.25593351       0.26458383       0.97881436 </v>
   <v>       0.52749618       0.26389495       0.24848875 </v>
   <v>       0.74292611       0.98442264       0.28144857 </v>
   <v>       0.73460285       0.24582314       0.99424955 </v>
   <v>       0.22841971       0.72726480       0.00540758 </v>
   <v>       0.23508665       0.23995853       0.51740614 </v>
   <v>       0.24863137       0.76008405       0.49328666 </v>
   <v>       0.24131883       0.24774712       0.24680413 </v>
   <v>       0.26135438       0.00447378       0.98730854 </v>
   <v>       0.99702250       0.25501464       0.00325181 </v>
   <v>       0.74416811       0.23501276       0.24160669 </v>
   <v>       0.75200946       0.00592679       0.01857771 </v>
   <v>       0.51691336       0.99673116       0.23506214 </v>
   <v>       0.99341166       0.49493412       0.24431478 </v>
   <v>       0.49944864       0.76167868       0.00955345 </v>
   <v>       0.98523816       0.00330171       0.74253069 </v>
   <v>       0.75571107       0.24125452       0.75325307 </v>
   <v>       0.74790889       0.00127585       0.52124347 </v>
   <v>       0.49920253       0.23871004       0.48147391 </v>
   <v>       0.49178193       0.00251105       0.73621062 </v>
   <v>       0.99381820       0.00232203       0.25676170 </v>
   <v>       0.49461071       0.24610900       0.00655436 </v>
   <v>       0.25434765       0.74954738       0.24525656 </v>
   <v>       0.24401470       0.49646205       0.99545287 </v>
   <v>       0.00415566       0.74332490       0.00593328 </v>
   <v>       0.75238282       0.74527414       0.25235622 </v>
   <v>       0.75825115       0.49078257       0.00996063 </v>
   <v>       0.49845575       0.49614004       0.25348277 </v>
   <v>       0.24768396       0.24956834       0.74810169 </v>
   <v>       0.26823183       0.00111846       0.50245626 </v>
   <v>       0.00239912       0.24755085       0.50277678 </v>
   <v>       0.24184263       0.75715425       0.75522928 </v>
   <v>       0.25747456       0.49773825       0.50245441 </v>
   <v>       0.00175813       0.76038802       0.50119078 </v>
   <v>       0.00280667       0.50344966       0.75034602 </v>
   <v>       0.74958974       0.75275906       0.75138861 </v>
   <v>       0.74366254       0.49780135       0.50879838 </v>
   <v>       0.49023167       0.75217357       0.49801604 </v>
   <v>       0.50356796       0.50367718       0.74285729 </v>
   <v>       0.52141998       0.01373226       0.98365492 </v>
   <v>       0.99802078       0.49983323       0.98617610 </v>
   <v>       0.49365238       0.73990607       0.25617416 </v>
   <v>       0.23336631       0.00237141       0.73916423 </v>
   <v>       0.51239268       0.98644058       0.47544798 </v>
   <v>       0.73769228       0.98481028       0.77340553 </v>
   <v>       0.00707115       0.77344794       0.25927939 </v>
   <v>       0.73629279       0.49580610       0.26068751 </v>
   <v>       0.02384057       0.00258068       0.49982078 </v>
   <v>       0.50395845       0.52052105       0.49202594 </v>
   <v>       0.75397188       0.51802288       0.76417090 </v>
   <v>       0.74436888       0.74292341       0.48908290 </v>
  </varray>
 </structure>
 <calculation>
  <scstep>
   <time name="dav">   19.25   19.61</time>
   <time name="total">   19.30   19.70</time>
   <energy>
    <i name="alphaZ">   4242.42039234 </i>
    <i name="ewald"> -40784.28609856 </i>
    <i name="hartreedc">  -8742.54115623 </i>
    <i name="XCdc">   1573.79190704 </i>
    <i name="pawpsdc">  29805.47413196 </i>
    <i name="pawaedc"> -29208.45316881 </i>
    <i name="eentropy">     -0.08765593 </i>
    <i name="bandstr">   1428.54019308 </i>
    <i name="atom">  47073.14664358 </i>
    <i name="e_fr_energy">   5388.00518847 </i>
    <i name="e_wo_entrp">   5388.09284439 </i>
    <i name="e_0_energy">   5388.04901643 </i>
   </energy>
  </scstep>
  <scstep>
   <time name="dav">   20.65   21.17</time>
   <time name="total">   20.65   21.17</time>
   <energy>
    <i name="e_fr_energy">     20.45701310 </i>
    <i name="e_wo_entrp">     20.57794071 </i>
    <i name="e_0_energy">     20.51747690 </i>
   </energy>
  </scstep>
  <scstep>
   <time name="dav">   29.40   29.42</time>
   <time name="total">   29.40   29.42</time>
   <energy>
    <i name="e_fr_energy">   -714.22357983 </i>
    <i name="e_wo_entrp">   -714.12536348 </i>
    <i name="e_0_energy">   -714.17447165 </i>
   </energy>
  </scstep>
  <scstep>
   <time name="dav">   30.18   30.23</time>
   <time name="total">   30.18   30.23</time>
   <energy>
    <i name="e_fr_energy">   -772.07422400 </i>
    <i name="e_wo_entrp">   -771.98207704 </i>
    <i name="e_0_energy">   -772.02815052 </i>
   </energy>
  </scstep>
  <scstep>
   <time name="dav">   33.27   34.10</time>
   <time name="total">   33.54   34.38</time>
   <energy>
    <i name="e_fr_energy">   -778.23809171 </i>
    <i name="e_wo_entrp">   -778.14338211 </i>
    <i name="e_0_energy">   -778.19073691 </i>
   </energy>
  </scstep>
  <scstep>
   <time name="diag">    1.80    1.85</time>
   <time name="diis">   17.99   18.01</time>
   <time name="orth">    0.41    0.41</time>
   <time name="total">   20.48   20.55</time>
   <energy>
    <i name="e_fr_energy">   -742.22306407 </i>
    <i name="e_wo_entrp">   -742.04228112 </i>
    <i name="e_0_energy">   -742.13267259 </i>
   </energy>
  </scstep>
  <scstep>
   <time name="diag">    1.74    1.77</time>
   <time name="diis">   15.78   16.21</time>
   <time name="orth">    0.41    0.41</time>
   <time name="total">   18.19   18.66</time>
   <energy>
    <i name="e_fr_energy">   -667.70619083 </i>
    <i name="e_wo_entrp">   -667.57369903 </i>
    <i name="e_0_energy">   -667.63994493 </i>
   </energy>
  </scstep>
  <scstep>
   <time name="diag">    1.73    1.77</time>
   <time name="diis">   19.76   20.31</time>
   <time name="orth">    0.44    0.44</time>
   <time name="total">   22.20   22.80</time>
   <energy>
    <i name="e_fr_energy">   -645.47486819 </i>
    <i name="e_wo_entrp">   -645.35401484 </i>
    <i name="e_0_energy">   -645.41444152 </i>
   </energy>
  </scstep>
  <scstep>
   <time name="diag">    1.76    1.76</time>
   <time name="diis">   18.19   18.21</time>
   <time name="orth">    0.41    0.41</time>
   <time name="total">   20.65   20.67</time>
   <energy>
    <i name="e_fr_energy">   -643.23006272 </i>
    <i name="e_wo_entrp">   -643.10738405 </i>
    <i name="e_0_energy">   -643.16872339 </i>
   </energy>
  </scstep>
  <scstep>
   <time name="diag">    1.75    1.76</time>
   <time name="diis">   19.93   19.95</time>
   <time name="orth">    0.41    0.41</time>
   <time name="total">   22.38   22.40</time>
   <energy>
    <i name="e_fr_energy">   -643.27619196 </i>
    <i name="e_wo_entrp">   -643.14621262 </i>
    <i name="e_0_energy">   -643.21120229 </i>
   </energy>
  </scstep>
  <scstep>
   <time name="diag">    1.79    1.80</time>
   <time name="diis">   19.87   19.94</time>
   <time name="orth">    0.41    0.41</time>
   <time name="total">   22.34   22.42</time>
   <energy>
    <i name="e_fr_energy">   -642.73312406 </i>
    <i name="e_wo_entrp">   -642.60397285 </i>
    <i name="e_0_energy">   -642.66854845 </i>
   </energy>
  </scstep>
  <scstep>
   <time name="diag">    1.73    1.76</time>
   <time name="diis">   19.87   20.43</time>
   <time name="orth">    0.41    0.41</time>
   <time name="total">   22.27   22.88</time>
   <energy>
    <i name="e_fr_energy">   -643.04962430 </i>
    <i name="e_wo_entrp">   -642.91220832 </i>
    <i name="e_0_energy">   -642.98091631 </i>
   </energy>
  </scstep>
  <scstep>
   <time name="diag">    1.78    1.80</time>
   <time name="diis">   20.25   20.26</time>
   <time name="orth">    0.41    0.41</time>
   <time name="total">   22.72   22.75</time>
   <energy>
    <i name="e_fr_energy">   -642.63386322 </i>
    <i name="e_wo_entrp">   -642.50688710 </i>
    <i name="e_0_energy">   -642.57037516 </i>
   </energy>
  </scstep>
  <scstep>
   <time name="diag">    1.78    1.78</time>
   <time name="diis">   20.58   20.63</time>
   <time name="orth">    0.41    0.41</time>
   <time name="total">   23.04   23.10</time>
   <energy>
    <i name="e_fr_energy">   -642.65422453 </i>
    <i name="e_wo_entrp">   -642.52401444 </i>
    <i name="e_0_energy">   -642.58911949 </i>
   </energy>
  </scstep>
  <scstep>
   <time name="diag">    1.80    1.80</time>
   <time name="diis">   20.50   20.50</time>
   <time name="orth">    0.41    0.41</time>
   <time name="total">   22.98   22.99</time>
   <energy>
    <i name="e_fr_energy">   -642.61735189 </i>
    <i name="e_wo_entrp">   -642.48875231 </i>
    <i name="e_0_energy">   -642.55305210 </i>
   </energy>
  </scstep>
  <scstep>
   <time name="diag">    1.76    1.76</time>
   <time name="diis">   19.79   19.82</time>
   <time name="orth">    0.43    0.43</time>
   <time name="total">   22.25   22.31</time>
   <energy>
    <i name="e_fr_energy">   -642.62505022 </i>
    <i name="e_wo_entrp">   -642.49563449 </i>
    <i name="e_0_energy">   -642.56034236 </i>
   </energy>
  </scstep>
  <scstep>
   <time name="diag">    1.75    1.79</time>
   <time name="diis">   20.16   20.38</time>
   <time name="orth">    0.41    0.41</time>
   <time name="total">   22.60   22.86</time>
   <energy>
    <i name="e_fr_energy">   -642.62818326 </i>
    <i name="e_wo_entrp">   -642.50056001 </i>
    <i name="e_0_energy">   -642.56437163 </i>
   </energy>
  </scstep>
  <scstep>
   <time name="diag">    1.76    1.76</time>
   <time name="diis">   19.94   19.95</time>
   <time name="orth">    0.44    0.44</time>
   <time name="total">   22.43   22.44</time>
   <energy>
    <i name="e_fr_energy">   -642.62423728 </i>
    <i name="e_wo_entrp">   -642.49553008 </i>
    <i name="e_0_energy">   -642.55988368 </i>
   </energy>
  </scstep>
  <scstep>
   <time name="diag">    1.77    1.77</time>
   <time name="diis">   20.12   20.17</time>
   <time name="orth">    0.41    0.41</time>
   <time name="total">   22.57   22.63</time>
   <energy>
    <i name="e_fr_energy">   -642.62433717 </i>
    <i name="e_wo_entrp">   -642.49609348 </i>
    <i name="e_0_energy">   -642.56021533 </i>
   </energy>
  </scstep>
  <scstep>
   <time name="diag">    1.73    1.77</time>
   <time name="diis">   20.54   21.12</time>
   <time name="orth">    0.40    0.41</time>
   <time name="total">   22.95   23.58</time>
   <energy>
    <i name="e_fr_energy">   -642.62376502 </i>
    <i name="e_wo_entrp">   -642.49490969 </i>
    <i name="e_0_energy">   -642.55933736 </i>
   </energy>
  </scstep>
  <scstep>
   <time name="diag">    1.72    1.76</time>
   <time name="diis">   19.82   20.37</time>
   <time name="orth">    0.41    0.41</time>
   <time name="total">   22.22   22.81</time>
   <energy>
    <i name="e_fr_energy">   -642.62377867 </i>
    <i name="e_wo_entrp">   -642.49484821 </i>
    <i name="e_0_energy">   -642.55931344 </i>
   </energy>
  </scstep>
  <scstep>
   <time name="diag">    1.83    1.91</time>
   <time name="diis">   19.79   19.91</time>
   <time name="orth">    0.41    0.41</time>
   <time name="total">   22.32   22.52</time>
   <energy>
    <i name="e_fr_energy">   -642.62401146 </i>
    <i name="e_wo_entrp">   -642.49518850 </i>
    <i name="e_0_energy">   -642.55959998 </i>
   </energy>
  </scstep>
  <scstep>
   <time name="diag">    1.76    1.76</time>
   <time name="diis">   19.14   19.15</time>
   <time name="orth">    0.41    0.41</time>
   <time name="total">   21.60   21.61</time>
   <energy>
    <i name="e_fr_energy">   -642.62405086 </i>
    <i name="e_wo_entrp">   -642.49512607 </i>
    <i name="e_0_energy">   -642.55958846 </i>
   </energy>
  </scstep>
  <scstep>
   <time name="diag">    1.76    1.76</time>
   <time name="diis">   17.28   17.30</time>
   <time name="orth">    0.41    0.41</time>
   <time name="total">   19.73   19.75</time>
   <energy>
    <i name="e_fr_energy">   -642.62410873 </i>
    <i name="e_wo_entrp">   -642.49518734 </i>
    <i name="e_0_energy">   -642.55964804 </i>
   </energy>
  </scstep>
  <scstep>
   <time name="diag">    1.78    1.79</time>
   <time name="diis">   15.30   15.31</time>
   <time name="orth">    0.41    0.41</time>
   <time name="total">   17.76   17.79</time>
   <energy>
    <i name="e_fr_energy">   -642.62415247 </i>
    <i name="e_wo_entrp">   -642.49523607 </i>
    <i name="e_0_energy">   -642.55969427 </i>
   </energy>
  </scstep>
  <scstep>
   <time name="diag">    1.76    1.76</time>
   <time name="diis">   13.22   13.24</time>
   <time name="orth">    0.41    0.41</time>
   <time name="total">   15.67   15.69</time>
   <energy>
    <i name="e_fr_energy">   -642.62418323 </i>
    <i name="e_wo_entrp">   -642.49526684 </i>
    <i name="e_0_energy">   -642.55972503 </i>
   </energy>
  </scstep>
  <scstep>
   <time name="diag">    1.76    1.76</time>
   <time name="diis">   11.32   11.33</time>
   <time name="orth">    0.42    0.44</time>
   <time name="total">   13.78   13.82</time>
   <energy>
    <i name="e_fr_energy">   -642.62420090 </i>
    <i name="e_wo_entrp">   -642.49528706 </i>
    <i name="e_0_energy">   -642.55974398 </i>
   </energy>
  </scstep>
  <scstep>
   <time name="diag">    1.77    1.77</time>
   <time name="diis">   11.21   11.29</time>
   <time name="orth">    0.42    0.42</time>
   <time name="total">   13.68   13.77</time>
   <energy>
    <i name="e_fr_energy">   -642.62421279 </i>
    <i name="e_wo_entrp">   -642.49529955 </i>
    <i name="e_0_energy">   -642.55975617 </i>
   </energy>
  </scstep>
  <scstep>
   <time name="diag">    1.79    1.80</time>
   <time name="diis">   10.04   10.05</time>
   <time name="orth">    0.41    0.41</time>
   <time name="total">   12.28   12.29</time>
   <energy>
    <i name="alphaZ">   4242.42039234 </i>
    <i name="ewald"> -40784.28609856 </i>
    <i name="hartreedc">  -8277.54682282 </i>
    <i name="XCdc">   1567.28398622 </i>
    <i name="pawpsdc">  31277.63408999 </i>
    <i name="pawaedc"> -30726.77500533 </i>
    <i name="eentropy">     -0.12891398 </i>
    <i name="bandstr">  -5014.37249100 </i>
    <i name="atom">  47073.14664358 </i>
    <i name="e_fr_energy">   -642.62421956 </i>
    <i name="e_wo_entrp">   -642.49530558 </i>
    <i name="e_0_energy">   -642.55976257 </i>
   </energy>
  </scstep>
  <structure>
   <crystal>
    <varray name="basis" >
     <v>       8.84890764       0.01383233       0.01367721 </v>
     <v>       0.01989653       8.85083594       0.00023037 </v>
     <v>       0.04552330      -0.01504682       8.85711093 </v>
    </varray>
    <i name="volume">    693.68304115 </i>
    <varray name="rec_basis" >
     <v>       0.11300959      -0.00025403      -0.00058127 </v>
     <v>      -0.00017691       0.11298407       0.00019285 </v>
     <v>      -0.00017451      -0.00000255       0.11290453 </v>
    </varray>
   </crystal>
   <varray name="positions" >
    <v>       0.00084635       0.00413800       0.99850525 </v>
    <v>       0.26110612       0.00656893       0.24303960 </v>
    <v>       0.24662802       0.49043902       0.25187709 </v>
    <v>       0.50279359       0.49655010       0.00091911 </v>
    <v>       0.50409486       0.24835436       0.74208178 </v>
    <v>       0.99835237       0.50341626       0.50076569 </v>
    <v>       0.49350390       0.75770616       0.75535113 </v>
    <v>       0.98721936       0.23652537       0.25698220 </v>
    <v>       0.76368574       0.74562739       0.00887228 </v>
    <v>       0.00066700       0.26131340       0.75036485 </v>
    <v>       0.75278323       0.25280868       0.48940534 </v>
    <v>       0.00026817       0.74667653       0.74872660 </v>
    <v>       0.25413220       0.50153442       0.74435233 </v>
    <v>       0.25593351       0.26458383       0.97881436 </v>
    <v>       0.52749618       0.26389495       0.24848875 </v>
    <v>       0.74292611       0.98442264       0.28144857 </v>
    <v>       0.73460285       0.24582314       0.99424955 </v>
    <v>       0.22841971       0.72726480       0.00540758 </v>
    <v>       0.23508665       0.23995853       0.51740614 </v>
    <v>       0.24863137       0.76008405       0.49328666 </v>
    <v>       0.24131883       0.24774712       0.24680413 </v>
    <v>       0.26135438       0.00447378       0.98730854 </v>
    <v>       0.99702250       0.25501464       0.00325181 </v>
    <v>       0.74416811       0.23501276       0.24160669 </v>
    <v>       0.75200946       0.00592679       0.01857771 </v>
    <v>       0.51691336       0.99673116       0.23506214 </v>
    <v>       0.99341166       0.49493412       0.24431478 </v>
    <v>       0.49944864       0.76167868       0.00955345 </v>
    <v>       0.98523816       0.00330171       0.74253069 </v>
    <v>       0.75571107       0.24125452       0.75325307 </v>
    <v>       0.74790889       0.00127585       0.52124347 </v>
    <v>       0.49920253       0.23871004       0.48147391 </v>
    <v>       0.49178193       0.00251105       0.73621062 </v>
    <v>       0.99381820       0.00232203       0.25676170 </v>
    <v>       0.49461071       0.24610900       0.00655436 </v>
    <v>       0.25434765       0.74954738       0.24525656 </v>
    <v>       0.24401470       0.49646205       0.99545287 </v>
    <v>       0.00415566       0.74332490       0.00593328 </v>
    <v>       0.75238282       0.74527414       0.25235622 </v>
    <v>       0.75825115       0.49078257       0.00996063 </v>
    <v>       0.49845575       0.49614004       0.25348277 </v>
    <v>       0.24768396       0.24956834       0.74810169 </v>
    <v>       0.26823183       0.00111846       0.50245626 </v>
    <v>       0.00239912       0.24755085       0.50277678 </v>
    <v>       0.24184263       0.75715425       0.75522928 </v>
    <v>       0.25747456       0.49773825       0.50245441 </v>
    <v>       0.00175813       0.76038802       0.50119078 </v>
    <v>       0.00280667       0.50344966       0.75034602 </v>
    <v>       0.74958974       0.75275906       0.75138861 </v>
    <v>       0.74366254       0.49780135       0.50879838 </v>
    <v>       0.49023167       0.75217357       0.49801604 </v>
    <v>       0.50356796       0.50367718       0.74285729 </v>
    <v>       0.52141998       0.01373226       0.98365492 </v>
    <v>       0.99802078       0.49983323       0.98617610 </v>
    <v>       0.49365238       0.73990607       0.25617416 </v>
    <v>       0.23336631       0.00237141       0.73916423 </v>
    <v>       0.51239268       0.98644058       0.47544798 </v>
    <v>       0.73769228       0.98481028       0.77340553 </v>
    <v>       0.00707115       0.77344794       0.25927939 </v>
    <v>       0.73629279       0.49580610       0.26068751 </v>
    <v>       0.02384057       0.00258068       0.49982078 </v>
    <v>       0.50395845       0.52052105       0.49202594 </v>
    <v>       0.75397188       0.51802288       0.76417090 </v>
    <v>       0.74436888       0.74292341       0.48908290 </v>
   </varray>
  </structure>
  <varray name="forces" >
   <v>      -0.00442521       0.03243910       0.06671740 </v>
   <v>      -0.02334924       0.09001650      -0.04830300 </v>
   <v>      -0.02854060      -0.03606530       0.08079206 </v>
   <v>       0.00006884       0.01923888      -0.01368861 </v>
   <v>      -0.05062511      -0.03195740      -0.05641363 </v>
   <v>       0.05527167       0.04258217       0.00719425 </v>
   <v>      -0.02213733      -0.01783620      -0.02320227 </v>
   <v>      -0.07683293      -0.01305164      -0.03748816 </v>
   <v>       0.00476000      -0.06178066       0.11004188 </v>
   <v>       0.00053164       0.01477472       0.04549739 </v>
   <v>      -0.05191341       0.02642715       0.06395702 </v>
   <v>       0.02562697      -0.01810358       0.01522176 </v>
   <v>      -0.06018864      -0.00870478      -0.01614941 </v>
   <v>      -0.01614549       0.14611242       0.05845683 </v>
   <v>       0.05151469       0.03340737       0.03741800 </v>
   <v>       0.03055916       0.02561403      -0.09169359 </v>
   <v>      -0.04153177      -0.11762074      -0.16149025 </v>
   <v>      -0.03166917       0.01174253      -0.04669158 </v>
   <v>      -0.04072820      -0.00796744      -0.10001815 </v>
   <v>      -0.13821907       0.02263829       0.12843184 </v>
   <v>      -0.00516191       0.05038804      -0.00028241 </v>
   <v>      -0.03650409      -0.04581364      -0.01593015 </v>
   <v>       0.01947103       0.03597055       0.02877633 </v>
   <v>       0.07213526       0.05036258      -0.09121221 </v>
   <v>      -0.07094377      -0.11944790       0.06665030 </v>
   <v>      -0.08740660       0.01131260       0.09047674 </v>
   <v>       0.00191557      -0.03533212      -0.01988398 </v>
   <v>      -0.03768511      -0.05252233       0.00395996 </v>
   <v>       0.16317049       0.01045934       0.05527549 </v>
   <v>      -0.01721384       0.01419873       0.02108674 </v>
   <v>       0.18766698      -0.00428023      -0.03379038 </v>
   <v>      -0.00098615      -0.05071883       0.05397960 </v>
   <v>       0.06507968      -0.00924937       0.02458059 </v>
   <v>      -0.01689731       0.00812451      -0.01715681 </v>
   <v>      -0.02562346       0.01934014       0.00778537 </v>
   <v>       0.05249931      -0.03182704       0.01547011 </v>
   <v>       0.01134191       0.03205419      -0.00651917 </v>
   <v>       0.05104977      -0.04126762       0.03553478 </v>
   <v>       0.02158625      -0.00190500      -0.01422395 </v>
   <v>       0.02568902      -0.02961229      -0.00497926 </v>
   <v>       0.06815702      -0.04995606       0.04195870 </v>
   <v>      -0.02845923      -0.00864384      -0.06676702 </v>
   <v>      -0.11536317       0.14585017      -0.04018648 </v>
   <v>      -0.00883047       0.04789443      -0.02561843 </v>
   <v>      -0.00090183      -0.00735222      -0.03611055 </v>
   <v>      -0.05356136      -0.04868625       0.06774853 </v>
   <v>       0.00422045      -0.02243477       0.03882407 </v>
   <v>      -0.08584444      -0.01074275      -0.00052683 </v>
   <v>       0.06471834       0.01933315      -0.01643461 </v>
   <v>       0.03190513       0.02560035      -0.02060085 </v>
   <v>       0.09603596      -0.05826853      -0.00957484 </v>
   <v>       0.04019768      -0.03606328      -0.01051814 </v>
   <v>       0.06887910      -0.04973125       0.12913713 </v>
   <v>       0.03822792       0.00008707       0.01376455 </v>
   <v>       0.01088364       0.03373261       0.02650502 </v>
   <v>       0.04660144      -0.00922182      -0.08908987 </v>
   <v>      -0.06027092      -0.04787155      -0.09214687 </v>
   <v>      -0.06183396       0.12239630       0.02440360 </v>
   <v>       0.03303665      -0.01303612       0.00762006 </v>
   <v>      -0.06068693       0.03609858      -0.03241916 </v>
   <v>       0.04347558      -0.05310943      -0.02846048 </v>
   <v>      -0.06389249       0.08373269      -0.00449334 </v>
   <v>       0.01323534      -0.05213828      -0.03137670 </v>
   <v>       0.02486069      -0.00960893      -0.06382496 </v>
  </varray>
  <varray name="stress" >
   <v>     -14.93442015       0.88790660      -0.21586415 </v>
   <v>       0.88790536     -13.31267892      -0.24552381 </v>
   <v>      -0.21586590      -0.24552492     -11.46007483 </v>
  </varray>
  <energy>
   <i name="e_fr_energy">   -642.62421956 </i>
   <i name="e_wo_entrp">   -642.55976257 </i>
   <i name="e_0_energy">     -0.12891398 </i>
  </energy>
  <time name="totalsc">  663.69  669.83</time>
 </calculation>
 <calculation>
  <scstep>
   <time name="dav">   23.54   23.84</time>
   <time name="total">   23.82   24.12</time>
   <energy>
    <i name="alphaZ">   4297.87803543 </i>
    <i name="ewald"> -40961.40276196 </i>
    <i name="hartreedc">  -8313.19916075 </i>
    <i name="XCdc">   1575.61323099 </i>
    <i name="pawpsdc">  31277.63917579 </i>
    <i name="pawaedc"> -30726.77407504 </i>
    <i name="eentropy">     -0.12136489 </i>
    <i name="bandstr">  -4865.91694454 </i>
    <i name="atom">  47073.14664358 </i>
    <i name="e_fr_energy">   -643.13722140 </i>
    <i name="e_wo_entrp">   -643.01585651 </i>
    <i name="e_0_energy">   -643.07653895 </i>
   </energy>
  </scstep>
  <scstep>
   <time name="diag">    1.77    1.77</time>
   <time name="diis">   16.07   16.09</time>
   <time name="orth">    0.41    0.41</time>
   <time name="total">   18.53   18.55</time>
   <energy>
    <i name="e_fr_energy">   -645.94561514 </i>
    <i name="e_wo_entrp">   -645.79499365 </i>
    <i name="e_0_energy">   -645.87030439 </i>
   </energy>
  </scstep>
  <scstep>
   <time name="diag">    1.77    1.77</time>
   <time name="diis">   16.18   16.18</time>
   <time name="orth">    0.41    0.41</time>
   <time name="total">   18.63   18.64</time>
   <energy>
    <i name="e_fr_energy">   -642.84402247 </i>
    <i name="e_wo_entrp">   -642.72169773 </i>
    <i name="e_0_energy">   -642.78286010 </i>
   </energy>
  </scstep>
  <scstep>
   <time name="diag">    1.77    1.77</time>
   <time name="diis">   18.62   18.71</time>
   <time name="orth">    0.41    0.41</time>
   <time name="total">   21.08   21.17</time>
   <energy>
    <i name="e_fr_energy">   -642.73479336 </i>
    <i name="e_wo_entrp">   -642.61035770 </i>
    <i name="e_0_energy">   -642.67257553 </i>
   </energy>
  </scstep>
  <scstep>
   <time name="diag">    1.74    1.78</time>
   <time name="diis">   17.04   17.54</time>
   <time name="orth">    0.41    0.41</time>
   <time name="total">   19.45   20.01</time>
   <energy>
    <i name="e_fr_energy">   -642.64525559 </i>
    <i name="e_wo_entrp">   -642.51870037 </i>
    <i name="e_0_energy">   -642.58197798 </i>
   </energy>
  </scstep>
  <scstep>
   <time name="diag">    1.77    1.77</time>
   <time name="diis">   16.12   16.17</time>
   <time name="orth">    0.42    0.42</time>
   <time name="total">   18.59   18.64</time>
   <energy>
    <i name="e_fr_energy">   -642.63262176 </i>
    <i name="e_wo_entrp">   -642.50913279 </i>
    <i name="e_0_energy">   -642.57087727 </i>
   </energy>
  </scstep>
  <scstep>
   <time name="diag">    1.81    1.82</time>
   <time name="diis">   18.89   18.93</time>
   <time name="orth">    0.41    0.41</time>
   <time name="total">   21.40   21.45</time>
   <energy>
    <i name="e_fr_energy">   -642.60431570 </i>
    <i name="e_wo_entrp">   -642.47794578 </i>
    <i name="e_0_energy">   -642.54113074 </i>
   </energy>
  </scstep>
  <scstep>
   <time name="diag">    1.72    1.76</time>
   <time name="diis">   19.00   19.53</time>
   <time name="orth">    0.41    0.41</time>
   <time name="total">   21.40   21.98</time>
   <energy>
    <i name="e_fr_energy">   -642.60349921 </i>
    <i name="e_wo_entrp">   -642.47912655 </i>
    <i name="e_0_energy">   -642.54131288 </i>
   </energy>
  </scstep>
  <scstep>
   <time name="diag">    1.76    1.76</time>
   <time name="diis">   20.20   20.22</time>
   <time name="orth">    0.41    0.41</time>
   <time name="total">   22.66   22.67</time>
   <energy>
    <i name="e_fr_energy">   -642.59945714 </i>
    <i name="e_wo_entrp">   -642.47390473 </i>
    <i name="e_0_energy">   -642.53668094 </i>
   </energy>
  </scstep>
  <scstep>
   <time name="diag">    1.72    1.75</time>
   <time name="diis">   20.60   21.22</time>
   <time name="orth">    0.40    0.41</time>
   <time name="total">   22.99   23.66</time>
   <energy>
    <i name="e_fr_energy">   -642.59991929 </i>
    <i name="e_wo_entrp">   -642.47456966 </i>
    <i name="e_0_energy">   -642.53724447 </i>
   </energy>
  </scstep>
  <scstep>
   <time name="diag">    1.77    1.77</time>
   <time name="diis">   20.93   20.94</time>
   <time name="orth">    0.41    0.41</time>
   <time name="total">   23.39   23.40</time>
   <energy>
    <i name="e_fr_energy">   -642.59992864 </i>
    <i name="e_wo_entrp">   -642.47443528 </i>
    <i name="e_0_energy">   -642.53718196 </i>
   </energy>
  </scstep>
  <scstep>
   <time name="diag">    1.75    1.75</time>
   <time name="diis">   20.76   20.79</time>
   <time name="orth">    0.41    0.41</time>
   <time name="total">   23.20   23.24</time>
   <energy>
    <i name="e_fr_energy">   -642.60037947 </i>
    <i name="e_wo_entrp">   -642.47494715 </i>
    <i name="e_0_energy">   -642.53766331 </i>
   </energy>
  </scstep>
  <scstep>
   <time name="diag">    1.76    1.76</time>
   <time name="diis">   20.15   20.24</time>
   <time name="orth">    0.41    0.41</time>
   <time name="total">   22.60   22.68</time>
   <energy>
    <i name="e_fr_energy">   -642.60072754 </i>
    <i name="e_wo_entrp">   -642.47513637 </i>
    <i name="e_0_energy">   -642.53793195 </i>
   </energy>
  </scstep>
  <scstep>
   <time name="diag">    1.77    1.77</time>
   <time name="diis">   19.52   19.55</time>
   <time name="orth">    0.42    0.42</time>
   <time name="total">   21.99   22.02</time>
   <energy>
    <i name="e_fr_energy">   -642.60090936 </i>
    <i name="e_wo_entrp">   -642.47536851 </i>
    <i name="e_0_energy">   -642.53813893 </i>
   </energy>
  </scstep>
  <scstep>
   <time name="diag">    1.79    1.79</time>
   <time name="diis">   18.43   18.48</time>
   <time name="orth">    0.41    0.41</time>
   <time name="total">   20.91   20.98</time>
   <energy>
    <i name="e_fr_energy">   -642.60097461 </i>
    <i name="e_wo_entrp">   -642.47542732 </i>
    <i name="e_0_energy">   -642.53820096 </i>
   </energy>
  </scstep>
  <scstep>
   <time name="diag">    1.76    1.76</time>
   <time name="diis">   17.46   17.55</time>
   <time name="orth">    0.41    0.41</time>
   <time name="total">   19.90   20.00</time>
   <energy>
    <i name="e_fr_energy">   -642.60099952 </i>
    <i name="e_wo_entrp">   -642.47545590 </i>
    <i name="e_0_energy">   -642.53822771 </i>
   </energy>
  </scstep>
  <scstep>
   <time name="diag">    1.73    1.76</time>
   <time name="diis">   15.93   16.10</time>
   <time name="orth">    0.41    0.41</time>
   <time name="total">   18.35   18.55</time>
   <energy>
    <i name="e_fr_energy">   -642.60100666 </i>
    <i name="e_wo_entrp">   -642.47546734 </i>
    <i name="e_0_energy">   -642.53823700 </i>
   </energy>
  </scstep>
  <scstep>
   <time name="diag">    1.76    1.76</time>
   <time name="diis">   15.03   15.08</time>
   <time name="orth">    0.41    0.41</time>
   <time name="total">   17.24   17.29</time>
   <energy>
    <i name="alphaZ">   4297.87803543 </i>
    <i name="ewald"> -40961.40276196 </i>
    <i name="hartreedc">  -8223.26234129 </i>
    <i name="XCdc">   1570.82511042 </i>
    <i name="pawpsdc">  31420.69745714 </i>
    <i name="pawaedc"> -30869.43206307 </i>
    <i name="eentropy">     -0.12553714 </i>
    <i name="bandstr">  -4950.92555681 </i>
    <i name="atom">  47073.14664358 </i>
    <i name="e_fr_energy">   -642.60101371 </i>
    <i name="e_wo_entrp">   -642.47547657 </i>
    <i name="e_0_energy">   -642.53824514 </i>
   </energy>
  </scstep>
  <structure>
   <crystal>
    <varray name="basis" >
     <v>       8.80578065       0.01633537       0.01300154 </v>
     <v>       0.02236433       8.81238681      -0.00048111 </v>
     <v>       0.04467307      -0.01567797       8.82398199 </v>
    </varray>
    <i name="volume">    684.73210625 </i>
    <varray name="rec_basis" >
     <v>       0.11356315      -0.00028824      -0.00057545 </v>
     <v>      -0.00021081       0.11347718       0.00020269 </v>
     <v>      -0.00016734       0.00000661       0.11332838 </v>
    </varray>
   </crystal>
   <varray name="positions" >
    <v>       0.00081995       0.00431547       0.99886868 </v>
    <v>       0.26097907       0.00705933       0.24277669 </v>
    <v>       0.24647060       0.49024344       0.25231739 </v>
    <v>       0.50279412       0.49665484       0.00084455 </v>
    <v>       0.50382083       0.24818008       0.74177493 </v>
    <v>       0.99865298       0.50364796       0.50080441 </v>
    <v>       0.49338408       0.75760891       0.75522494 </v>
    <v>       0.98680169       0.23645454       0.25677866 </v>
    <v>       0.76370936       0.74529163       0.00947162 </v>
    <v>       0.00066844       0.26139435       0.75061266 </v>
    <v>       0.75249809       0.25295376       0.48975413 </v>
    <v>       0.00040768       0.74657778       0.74880930 </v>
    <v>       0.25380462       0.50148734       0.74426488 </v>
    <v>       0.25584206       0.26538092       0.97913288 </v>
    <v>       0.52777557       0.26407695       0.24869212 </v>
    <v>       0.74309497       0.98456114       0.28094887 </v>
    <v>       0.73438239       0.24518088       0.99337031 </v>
    <v>       0.22824822       0.72732864       0.00515353 </v>
    <v>       0.23486751       0.23991452       0.51686171 </v>
    <v>       0.24787394       0.76020982       0.49398737 </v>
    <v>       0.24129008       0.24802181       0.24680263 </v>
    <v>       0.26115637       0.00422423       0.98722208 </v>
    <v>       0.99712741       0.25521081       0.00340838 </v>
    <v>       0.74456332       0.23528580       0.24110926 </v>
    <v>       0.75162227       0.00527694       0.01894136 </v>
    <v>       0.51643415       0.99679441       0.23555569 </v>
    <v>       0.99342309       0.49474133       0.24420646 </v>
    <v>       0.49924372       0.76139276       0.00957535 </v>
    <v>       0.98612607       0.00335784       0.74283039 </v>
    <v>       0.75561646       0.24133225       0.75336806 </v>
    <v>       0.74893303       0.00125061       0.52105784 </v>
    <v>       0.49919626       0.23843410       0.48176794 </v>
    <v>       0.49213616       0.00246030       0.73634396 </v>
    <v>       0.99372646       0.00236629       0.25666839 </v>
    <v>       0.49447056       0.24621471       0.00659698 </v>
    <v>       0.25463382       0.74937360       0.24534039 </v>
    <v>       0.24407632       0.49663661       0.99541726 </v>
    <v>       0.00443348       0.74309986       0.00612641 </v>
    <v>       0.75250093       0.74526344       0.25227856 </v>
    <v>       0.75839170       0.49062089       0.00993329 </v>
    <v>       0.49882677       0.49586755       0.25371074 </v>
    <v>       0.24753078       0.24952085       0.74773826 </v>
    <v>       0.26760223       0.00191405       0.50223832 </v>
    <v>       0.00235111       0.24781174       0.50263731 </v>
    <v>       0.24183882       0.75711385       0.75503260 </v>
    <v>       0.25718125       0.49747397       0.50282388 </v>
    <v>       0.00178033       0.76026606       0.50140222 </v>
    <v>       0.00233880       0.50339183       0.75034388 </v>
    <v>       0.74994280       0.75286374       0.75129854 </v>
    <v>       0.74383675       0.49794043       0.50868590 </v>
    <v>       0.49075623       0.75185506       0.49796309 </v>
    <v>       0.50378785       0.50348017       0.74279966 </v>
    <v>       0.52179249       0.01346181       0.98435773 </v>
    <v>       0.99822881       0.49983350       0.98625075 </v>
    <v>       0.49371056       0.74009008       0.25631843 </v>
    <v>       0.23362299       0.00231992       0.73867858 </v>
    <v>       0.51206726       0.98617930       0.47494658 </v>
    <v>       0.73735299       0.98547817       0.77353896 </v>
    <v>       0.00725121       0.77337668       0.25932062 </v>
    <v>       0.73596240       0.49600307       0.26051143 </v>
    <v>       0.02407904       0.00229056       0.49966541 </v>
    <v>       0.50360921       0.52097795       0.49200199 </v>
    <v>       0.75404555       0.51773829       0.76399989 </v>
    <v>       0.74450633       0.74287023       0.48873505 </v>
   </varray>
  </structure>
  <varray name="forces" >
   <v>       0.01789709      -0.01436238       0.00413581 </v>
   <v>      -0.03266090      -0.01005663      -0.04588014 </v>
   <v>       0.03374283       0.04900028       0.00549648 </v>
   <v>      -0.01764933       0.04833256      -0.00318533 </v>
   <v>      -0.07358491       0.01925579      -0.01873525 </v>
   <v>       0.00129090      -0.00021513      -0.02224853 </v>
   <v>       0.03614759      -0.02693140       0.00690241 </v>
   <v>      -0.04044228       0.10354873      -0.03436781 </v>
   <v>      -0.05061921      -0.01451137      -0.00042309 </v>
   <v>      -0.01453190      -0.02421885       0.03805195 </v>
   <v>      -0.02800196      -0.01992105       0.04713274 </v>
   <v>      -0.03303935       0.03265601       0.04757867 </v>
   <v>      -0.02856650       0.00543601       0.04360563 </v>
   <v>      -0.05753400       0.05415373       0.08810808 </v>
   <v>      -0.07088116      -0.07069632       0.00547692 </v>
   <v>       0.09079721       0.06607480      -0.09422089 </v>
   <v>       0.02970322      -0.10253755      -0.14972515 </v>
   <v>       0.13561056       0.07212499      -0.05861054 </v>
   <v>       0.03030458       0.05710376      -0.12149818 </v>
   <v>      -0.08605556       0.02673341       0.13776417 </v>
   <v>       0.04737507       0.02840355      -0.00574412 </v>
   <v>      -0.02029010      -0.06181325      -0.00568523 </v>
   <v>       0.01372914       0.00571869       0.02873606 </v>
   <v>       0.03072194       0.02304866      -0.07251385 </v>
   <v>       0.06345489      -0.08824555       0.17261498 </v>
   <v>      -0.05709604       0.05112987      -0.03661400 </v>
   <v>      -0.01549959       0.02031993      -0.02255827 </v>
   <v>      -0.05405297      -0.03248751      -0.00518575 </v>
   <v>       0.08141243       0.01344317       0.03468114 </v>
   <v>      -0.01439607       0.03323528      -0.01552729 </v>
   <v>       0.15561998      -0.02618179      -0.03020096 </v>
   <v>      -0.06639179      -0.01685858       0.02298890 </v>
   <v>       0.01871165      -0.01778033       0.00016038 </v>
   <v>      -0.03395176      -0.00088818      -0.01231911 </v>
   <v>      -0.05240152       0.01673627       0.01528872 </v>
   <v>      -0.00527033       0.01040977       0.01178021 </v>
   <v>       0.04496165       0.02454075       0.04073899 </v>
   <v>      -0.00200131       0.03850552       0.03740190 </v>
   <v>       0.03590506       0.01438899      -0.02876807 </v>
   <v>      -0.02522950      -0.07535643       0.01324208 </v>
   <v>      -0.08689152      -0.03404020      -0.02029583 </v>
   <v>      -0.01188338      -0.00362849      -0.01639759 </v>
   <v>       0.07876693       0.04824143      -0.12764063 </v>
   <v>      -0.00971823       0.01016183      -0.00546611 </v>
   <v>       0.02817589      -0.02235285      -0.02985920 </v>
   <v>      -0.01282485      -0.02764133      -0.00313799 </v>
   <v>       0.00970462      -0.01483582       0.03499467 </v>
   <v>      -0.01094150       0.00460551      -0.04310446 </v>
   <v>       0.01201307       0.02742917      -0.00816785 </v>
   <v>       0.00450803       0.02088726      -0.00199665 </v>
   <v>      -0.01981026       0.04417085       0.06216871 </v>
   <v>       0.01359188      -0.02207191      -0.03081953 </v>
   <v>      -0.17371270      -0.05871023       0.07825505 </v>
   <v>       0.04390074      -0.04852272       0.07068748 </v>
   <v>       0.02513071       0.03223027      -0.07175566 </v>
   <v>       0.08410722       0.00429936       0.01492779 </v>
   <v>      -0.00795278       0.02199883       0.06392472 </v>
   <v>       0.06296955       0.12335131      -0.03123605 </v>
   <v>       0.01661069      -0.12702956      -0.03147528 </v>
   <v>       0.12512969      -0.00625292      -0.02429422 </v>
   <v>      -0.16937783       0.01625884      -0.01164192 </v>
   <v>      -0.04800954      -0.13353545       0.09916472 </v>
   <v>      -0.02617005      -0.13140218      -0.03127149 </v>
   <v>       0.08544584       0.06515081       0.04656269 </v>
  </varray>
  <varray name="stress" >
   <v>      30.57577840      -0.15544497       0.17587908 </v>
   <v>      -0.15544601      28.83158462       0.11789837 </v>
   <v>       0.17587865       0.11789940      26.52876177 </v>
  </varray>
  <energy>
   <i name="e_fr_energy">   -642.60101371 </i>
   <i name="e_wo_entrp">   -642.53824514 </i>
   <i name="e_0_energy">     -0.12553714 </i>
  </energy>
  <time name="totalsc">  416.98  420.72</time>
 </calculation>
 <calculation>
  <scstep>
   <time name="dav">   22.56   23.14</time>
   <time name="total">   22.83   23.41</time>
   <energy>
    <i name="alphaZ">   4264.96713017 </i>
    <i name="ewald"> -40856.53984793 </i>
    <i name="hartreedc">  -8202.43812813 </i>
    <i name="XCdc">   1565.90988415 </i>
    <i name="pawpsdc">  31420.81175560 </i>
    <i name="pawaedc"> -30869.42793436 </i>
    <i name="eentropy">     -0.13212552 </i>
    <i name="bandstr">  -5039.14206701 </i>
    <i name="atom">  47073.14664358 </i>
    <i name="e_fr_energy">   -642.84468944 </i>
    <i name="e_wo_entrp">   -642.71256392 </i>
    <i name="e_0_energy">   -642.77862668 </i>
   </energy>
  </scstep>
  <scstep>
   <time name="diag">    1.76    1.76</time>
   <time name="diis">   17.05   17.06</time>
   <time name="orth">    0.41    0.41</time>
   <time name="total">   19.50   19.51</time>
   <energy>
    <i name="e_fr_energy">   -644.02830681 </i>
    <i name="e_wo_entrp">   -643.90986630 </i>
    <i name="e_0_energy">   -643.96908655 </i>
   </energy>
  </scstep>
  <scstep>
   <time name="diag">    1.73    1.76</time>
   <time name="diis">   15.80   16.23</time>
   <time name="orth">    0.41    0.42</time>
   <time name="total">   18.24   18.72</time>
   <energy>
    <i name="e_fr_energy">   -642.70374519 </i>
    <i name="e_wo_entrp">   -642.57576849 </i>
    <i name="e_0_energy">   -642.63975684 </i>
   </energy>
  </scstep>
  <scstep>
   <time name="diag">    1.80    1.80</time>
   <time name="diis">   17.78   17.79</time>
   <time name="orth">    0.41    0.41</time>
   <time name="total">   20.28   20.29</time>
   <energy>
    <i name="e_fr_energy">   -642.70397763 </i>
    <i name="e_wo_entrp">   -642.57510050 </i>
    <i name="e_0_energy">   -642.63953906 </i>
   </energy>
  </scstep>
  <scstep>
   <time name="diag">    1.76    1.76</time>
   <time name="diis">   17.71   17.73</time>
   <time name="orth">    0.41    0.41</time>
   <time name="total">   20.16   20.18</time>
   <energy>
    <i name="e_fr_energy">   -642.65739502 </i>
    <i name="e_wo_entrp">   -642.53018756 </i>
    <i name="e_0_energy">   -642.59379129 </i>
   </energy>
  </scstep>
  <scstep>
   <time name="diag">    1.73    1.76</time>
   <time name="diis">   15.95   16.40</time>
   <time name="orth">    0.40    0.41</time>
   <time name="total">   18.35   18.84</time>
   <energy>
    <i name="e_fr_energy">   -642.65827004 </i>
    <i name="e_wo_entrp">   -642.52932754 </i>
    <i name="e_0_energy">   -642.59379879 </i>
   </energy>
  </scstep>
  <scstep>
   <time name="diag">    1.76    1.77</time>
   <time name="diis">   18.96   19.02</time>
   <time name="orth">    0.41    0.41</time>
   <time name="total">   21.41   21.47</time>
   <energy>
    <i name="e_fr_energy">   -642.64655724 </i>
    <i name="e_wo_entrp">   -642.51945374 </i>
    <i name="e_0_energy">   -642.58300549 </i>
   </energy>
  </scstep>
  <scstep>
   <time name="diag">    1.76    1.76</time>
   <time name="diis">   20.19   20.23</time>
   <time name="orth">    0.41    0.41</time>
   <time name="total">   22.63   22.67</time>
   <energy>
    <i name="e_fr_energy">   -642.64633888 </i>
    <i name="e_wo_entrp">   -642.51819634 </i>
    <i name="e_0_energy">   -642.58226761 </i>
   </energy>
  </scstep>
  <scstep>
   <time name="diag">    1.76    1.77</time>
   <time name="diis">   20.74   20.79</time>
   <time name="orth">    0.41    0.41</time>
   <time name="total">   23.19   23.24</time>
   <energy>
    <i name="e_fr_energy">   -642.64507871 </i>
    <i name="e_wo_entrp">   -642.51763162 </i>
    <i name="e_0_energy">   -642.58135516 </i>
   </energy>
  </scstep>
  <scstep>
   <time name="diag">    1.77    1.78</time>
   <time name="diis">   20.43   20.43</time>
   <time name="orth">    0.41    0.41</time>
   <time name="total">   22.88   22.90</time>
   <energy>
    <i name="e_fr_energy">   -642.64514261 </i>
    <i name="e_wo_entrp">   -642.51753790 </i>
    <i name="e_0_energy">   -642.58134026 </i>
   </energy>
  </scstep>
  <scstep>
   <time name="diag">    1.77    1.77</time>
   <time name="diis">   19.26   19.26</time>
   <time name="orth">    0.41    0.41</time>
   <time name="total">   21.72   21.73</time>
   <energy>
    <i name="e_fr_energy">   -642.64512895 </i>
    <i name="e_wo_entrp">   -642.51761212 </i>
    <i name="e_0_energy">   -642.58137053 </i>
   </energy>
  </scstep>
  <scstep>
   <time name="diag">    1.76    1.76</time>
   <time name="diis">   18.48   18.50</time>
   <time name="orth">    0.41    0.41</time>
   <time name="total">   20.94   20.96</time>
   <energy>
    <i name="e_fr_energy">   -642.64521598 </i>
    <i name="e_wo_entrp">   -642.51764980 </i>
    <i name="e_0_energy">   -642.58143289 </i>
   </energy>
  </scstep>
  <scstep>
   <time name="diag">    1.76    1.76</time>
   <time name="diis">   18.44   18.48</time>
   <time name="orth">    0.41    0.41</time>
   <time name="total">   20.88   20.93</time>
   <energy>
    <i name="e_fr_energy">   -642.64531258 </i>
    <i name="e_wo_entrp">   -642.51781820 </i>
    <i name="e_0_energy">   -642.58156539 </i>
   </energy>
  </scstep>
  <scstep>
   <time name="diag">    1.77    1.78</time>
   <time name="diis">   18.10   18.11</time>
   <time name="orth">    0.41    0.41</time>
   <time name="total">   20.55   20.57</time>
   <energy>
    <i name="e_fr_energy">   -642.64532805 </i>
    <i name="e_wo_entrp">   -642.51777782 </i>
    <i name="e_0_energy">   -642.58155294 </i>
   </energy>
  </scstep>
  <scstep>
   <time name="diag">    1.73    1.76</time>
   <time name="diis">   16.46   16.60</time>
   <time name="orth">    0.41    0.41</time>
   <time name="total">   18.87   19.06</time>
   <energy>
    <i name="e_fr_energy">   -642.64532777 </i>
    <i name="e_wo_entrp">   -642.51779436 </i>
    <i name="e_0_energy">   -642.58156107 </i>
   </energy>
  </scstep>
  <scstep>
   <time name="diag">    1.75    1.75</time>
   <time name="diis">   15.83   15.84</time>
   <time name="orth">    0.41    0.41</time>
   <time name="total">   18.27   18.29</time>
   <energy>
    <i name="e_fr_energy">   -642.64533566 </i>
    <i name="e_wo_entrp">   -642.51781773 </i>
    <i name="e_0_energy">   -642.58157669 </i>
   </energy>
  </scstep>
  <scstep>
   <time name="diag">    1.76    1.76</time>
   <time name="diis">   14.18   14.20</time>
   <time name="orth">    0.41    0.41</time>
   <time name="total">   16.38   16.41</time>
   <energy>
    <i name="alphaZ">   4264.96713017 </i>
    <i name="ewald"> -40856.53984793 </i>
    <i name="hartreedc">  -8255.60412980 </i>
    <i name="XCdc">   1568.73827236 </i>
    <i name="pawpsdc">  31335.89006800 </i>
    <i name="pawaedc"> -30784.53794300 </i>
    <i name="eentropy">     -0.12752863 </i>
    <i name="bandstr">  -4988.57800237 </i>
    <i name="atom">  47073.14664358 </i>
    <i name="e_fr_energy">   -642.64533761 </i>
    <i name="e_wo_entrp">   -642.51780899 </i>
    <i name="e_0_energy">   -642.58157330 </i>
   </energy>
  </scstep>
  <structure>
   <crystal>
    <varray name="basis" >
     <v>       8.83128351       0.01485521       0.01340110 </v>
     <v>       0.02090501       8.83512345      -0.00006038 </v>
     <v>       0.04517585      -0.01530474       8.84357257 </v>
    </varray>
    <i name="volume">    690.01588753 </i>
    <varray name="rec_basis" >
     <v>       0.11323515      -0.00026793      -0.00057891 </v>
     <v>      -0.00019069       0.11318506       0.00019685 </v>
     <v>      -0.00017159       0.00000118       0.11307735 </v>
    </varray>
   </crystal>
   <varray name="positions" >
    <v>       0.00083565       0.00421004       0.99865295 </v>
    <v>       0.26105467       0.00676806       0.24293272 </v>
    <v>       0.24656409       0.49035955       0.25205606 </v>
    <v>       0.50279383       0.49659264       0.00088880 </v>
    <v>       0.50398365       0.24828355       0.74195708 </v>
    <v>       0.99847438       0.50351040       0.50078141 </v>
    <v>       0.49345527       0.75766666       0.75529985 </v>
    <v>       0.98704988       0.23649654       0.25689949 </v>
    <v>       0.76369524       0.74549102       0.00911589 </v>
    <v>       0.00066759       0.26134626       0.75046556 </v>
    <v>       0.75266754       0.25286753       0.48954710 </v>
    <v>       0.00032476       0.74663645       0.74876021 </v>
    <v>       0.25399928       0.50151525       0.74431681 </v>
    <v>       0.25589652       0.26490747       0.97894378 </v>
    <v>       0.52760957       0.26396890       0.24857139 </v>
    <v>       0.74299468       0.98447893       0.28124546 </v>
    <v>       0.73451332       0.24556234       0.99389223 </v>
    <v>       0.22835015       0.72729071       0.00530433 </v>
    <v>       0.23499775       0.23994065       0.51718488 </v>
    <v>       0.24832402       0.76013496       0.49357148 </v>
    <v>       0.24130721       0.24785866       0.24680351 </v>
    <v>       0.26127400       0.00437241       0.98727342 </v>
    <v>       0.99706510       0.25509431       0.00331543 </v>
    <v>       0.74432854       0.23512373       0.24140448 </v>
    <v>       0.75185222       0.00566282       0.01872556 </v>
    <v>       0.51671890       0.99675674       0.23526275 </v>
    <v>       0.99341627       0.49485584       0.24427076 </v>
    <v>       0.49936544       0.76156254       0.00956237 </v>
    <v>       0.98559843       0.00332464       0.74265246 </v>
    <v>       0.75567269       0.24128606       0.75329981 </v>
    <v>       0.74832445       0.00126579       0.52116798 </v>
    <v>       0.49919992       0.23859798       0.48159343 </v>
    <v>       0.49192564       0.00249050       0.73626480 </v>
    <v>       0.99378099       0.00233999       0.25672378 </v>
    <v>       0.49455386       0.24615190       0.00657168 </v>
    <v>       0.25446373       0.74947685       0.24529063 </v>
    <v>       0.24403974       0.49653295       0.99543838 </v>
    <v>       0.00426834       0.74323356       0.00601177 </v>
    <v>       0.75243074       0.74526982       0.25232465 </v>
    <v>       0.75830815       0.49071694       0.00994952 </v>
    <v>       0.49860623       0.49602944       0.25357542 </v>
    <v>       0.24762182       0.24954905       0.74795399 </v>
    <v>       0.26797651       0.00144143       0.50236767 </v>
    <v>       0.00237969       0.24765679       0.50272009 </v>
    <v>       0.24184109       0.75713786       0.75514934 </v>
    <v>       0.25735548       0.49763086       0.50260461 </v>
    <v>       0.00176711       0.76033849       0.50127672 </v>
    <v>       0.00261682       0.50342610       0.75034517 </v>
    <v>       0.74973302       0.75280164       0.75135198 </v>
    <v>       0.74373326       0.49785786       0.50875265 </v>
    <v>       0.49044446       0.75204432       0.49799451 </v>
[...]
      </set>
     </set>
    </set>
   </array>
  </eigenvalues>
  <separator name="orbital magnetization" >
   <v name="MAGDIPOLOUT">      0.00000000      0.00000000      0.00000000</v>
  </separator>
  <dos>
   <i name="efermi">      8.87868673 </i>
   <total>
    <array>
     <dimension dim="1">gridpoints</dimension>
     <dimension dim="2">spin</dimension>
     <field>energy</field>
     <field>total</field>
     <field>integrated</field>
     <set>
      <set comment="spin 1">
       <r>   -59.5098     0.0000     0.0000 </r>
       <r>   -59.2612     0.0000     0.0000 </r>
       <r>   -59.0127     0.0000     0.0000 </r>
       <r>   -58.7641     0.0000     0.0000 </r>
       <r>   -58.5156     0.0000     0.0000 </r>
       <r>   -58.2671     0.0000     0.0000 </r>
       <r>   -58.0185     0.0000     0.0000 </r>
       <r>   -57.7700     0.0000     0.0000 </r>
       <r>   -57.5215     0.0000     0.0000 </r>
       <r>   -57.2729     0.0000     0.0000 </r>
       <r>   -57.0244     0.0000     0.0000 </r>
       <r>   -56.7759     0.0000     0.0000 </r>
       <r>   -56.5273     0.0000     0.0000 </r>
       <r>   -56.2788     0.1025     0.0255 </r>
       <r>   -56.0303    16.8191     4.2056 </r>
       <r>   -55.7817    38.8522    13.8618 </r>
       <r>   -55.5332     0.5562    14.0000 </r>
       <r>   -55.2846     0.0000    14.0000 </r>
       <r>   -55.0361     0.0000    14.0000 </r>
       <r>   -54.7876     0.0000    14.0000 </r>
       <r>   -54.5390     0.0000    14.0000 </r>
       <r>   -54.2905     0.0000    14.0000 </r>
       <r>   -54.0420     0.0000    14.0000 </r>
       <r>   -53.7934     0.0000    14.0000 </r>
       <r>   -53.5449     0.0000    14.0000 </r>
       <r>   -53.2964     0.0000    14.0000 </r>
       <r>   -53.0478     0.0000    14.0000 </r>
       <r>   -52.7993     0.0000    14.0000 </r>
       <r>   -52.5508     0.0000    14.0000 </r>
       <r>   -52.3022     0.0000    14.0000 </r>
       <r>   -52.0537     0.0000    14.0000 </r>
       <r>   -51.8051     0.0000    14.0000 </r>
       <r>   -51.5566     0.0000    14.0000 </r>
       <r>   -51.3081     0.0000    14.0000 </r>
       <r>   -51.0595     0.0000    14.0000 </r>
       <r>   -50.8110     0.0000    14.0000 </r>
       <r>   -50.5625     0.0000    14.0000 </r>
       <r>   -50.3139     0.0000    14.0000 </r>
       <r>   -50.0654     0.0000    14.0000 </r>
       <r>   -49.8169     0.0000    14.0000 </r>
       <r>   -49.5683     0.0000    14.0000 </r>
       <r>   -49.3198     0.0000    14.0000 </r>
       <r>   -49.0713     0.0000    14.0000 </r>
       <r>   -48.8227     0.0000    14.0000 </r>
       <r>   -48.5742     0.0000    14.0000 </r>
       <r>   -48.3256     0.0000    14.0000 </r>
       <r>   -48.0771     0.0000    14.0000 </r>
       <r>   -47.8286     0.0000    14.0000 </r>
       <r>   -47.5800     0.0000    14.0000 </r>
       <r>   -47.3315     0.0184    14.0046 </r>
       <r>   -47.0830     8.9605    16.2316 </r>
       <r>   -46.8344    26.5297    22.8251 </r>
       <r>   -46.5859    12.0022    25.8081 </r>
       <r>   -46.3374     0.7721    26.0000 </r>
       <r>   -46.0888     0.0000    26.0000 </r>
       <r>   -45.8403     0.0000    26.0000 </r>
       <r>   -45.5918     0.0000    26.0000 </r>
       <r>   -45.3432     0.0000    26.0000 </r>
       <r>   -45.0947     0.0000    26.0000 </r>
       <r>   -44.8462     0.0000    26.0000 </r>
       <r>   -44.5976     0.0000    26.0000 </r>
       <r>   -44.3491     0.0000    26.0000 </r>
       <r>   -44.1005     0.0000    26.0000 </r>
       <r>   -43.8520     0.0000    26.0000 </r>
       <r>   -43.6035     0.0000    26.0000 </r>
       <r>   -43.3549     0.0000    26.0000 </r>
       <r>   -43.1064     0.0000    26.0000 </r>
       <r>   -42.8579     0.0000    26.0000 </r>
       <r>   -42.6093     0.0000    26.0000 </r>
       <r>   -42.3608     0.0000    26.0000 </r>
       <r>   -42.1123     0.0000    26.0000 </r>
       <r>   -41.8637     0.0000    26.0000 </r>
       <r>   -41.6152     0.0000    26.0000 </r>
       <r>   -41.3667     0.0000    26.0000 </r>
       <r>   -41.1181     0.0000    26.0000 </r>
       <r>   -40.8696     0.0000    26.0000 </r>
       <r>   -40.6210     0.0663    26.0165 </r>
       <r>   -40.3725     6.9202    27.7364 </r>
       <r>   -40.1240     5.6676    29.1450 </r>
       <r>   -39.8754    20.2959    34.1892 </r>
       <r>   -39.6269    21.6146    39.5612 </r>
       <r>   -39.3784     1.7654    40.0000 </r>
       <r>   -39.1298     0.0000    40.0000 </r>
       <r>   -38.8813     0.0000    40.0000 </r>
       <r>   -38.6328     0.0000    40.0000 </r>
       <r>   -38.3842     0.0000    40.0000 </r>
       <r>   -38.1357     0.0000    40.0000 </r>
       <r>   -37.8872     0.0000    40.0000 </r>
       <r>   -37.6386     0.0000    40.0000 </r>
       <r>   -37.3901     0.0000    40.0000 </r>
       <r>   -37.1415     0.0000    40.0000 </r>
       <r>   -36.8930     0.0000    40.0000 </r>
       <r>   -36.6445     0.0000    40.0000 </r>
       <r>   -36.3959     0.0000    40.0000 </r>
       <r>   -36.1474     0.0000    40.0000 </r>
       <r>   -35.8989     0.0000    40.0000 </r>
       <r>   -35.6503     0.0000    40.0000 </r>
       <r>   -35.4018     0.0000    40.0000 </r>
       <r>   -35.1533     0.0000    40.0000 </r>
       <r>   -34.9047     0.0000    40.0000 </r>
       <r>   -34.6562     0.0000    40.0000 </r>
       <r>   -34.4077     0.0000    40.0000 </r>
       <r>   -34.1591     0.0000    40.0000 </r>
       <r>   -33.9106     0.0000    40.0000 </r>
       <r>   -33.6620     0.0000    40.0000 </r>
       <r>   -33.4135     0.0000    40.0000 </r>
       <r>   -33.1650     0.0000    40.0000 </r>
       <r>   -32.9164     0.0000    40.0000 </r>
       <r>   -32.6679     0.0000    40.0000 </r>
       <r>   -32.4194     0.0000    40.0000 </r>
       <r>   -32.1708     0.0000    40.0000 </r>
       <r>   -31.9223     0.0000    40.0000 </r>
       <r>   -31.6738     0.0000    40.0000 </r>
       <r>   -31.4252     0.0000    40.0000 </r>
       <r>   -31.1767     0.0000    40.0000 </r>
       <r>   -30.9282     0.1113    40.0277 </r>
       <r>   -30.6796    16.5502    44.1410 </r>
       <r>   -30.4311    60.2453    59.1141 </r>
       <r>   -30.1825    63.8927    74.9937 </r>
       <r>   -29.9340    82.8761    95.5914 </r>
       <r>   -29.6855    89.0928   117.7341 </r>
       <r>   -29.4369     1.0699   118.0000 </r>
       <r>   -29.1884     0.0000   118.0000 </r>
       <r>   -28.9399     0.0000   118.0000 </r>
       <r>   -28.6913     0.0000   118.0000 </r>
       <r>   -28.4428     0.0000   118.0000 </r>
       <r>   -28.1943     0.0000   118.0000 </r>
       <r>   -27.9457     0.0000   118.0000 </r>
       <r>   -27.6972     0.0000   118.0000 </r>
       <r>   -27.4487     0.0000   118.0000 </r>
       <r>   -27.2001     0.0000   118.0000 </r>
       <r>   -26.9516     0.0000   118.0000 </r>
       <r>   -26.7030     0.0000   118.0000 </r>
       <r>   -26.4545     0.0000   118.0000 </r>
       <r>   -26.2060     0.0000   118.0000 </r>
       <r>   -25.9574     0.0000   118.0000 </r>
       <r>   -25.7089     0.0000   118.0000 </r>
       <r>   -25.4604     0.0000   118.0000 </r>
       <r>   -25.2118     0.0000   118.0000 </r>
       <r>   -24.9633     0.0000   118.0000 </r>
       <r>   -24.7148     0.0000   118.0000 </r>
       <r>   -24.4662     0.0000   118.0000 </r>
       <r>   -24.2177     0.0000   118.0000 </r>
       <r>   -23.9692     0.0000   118.0000 </r>
       <r>   -23.7206     0.0017   118.0004 </r>
       <r>   -23.4721     4.1865   119.0409 </r>
       <r>   -23.2235    36.7451   128.1734 </r>
       <r>   -22.9750    67.9811   145.0691 </r>
       <r>   -22.7265    32.4273   153.1285 </r>
       <r>   -22.4779     3.5065   154.0000 </r>
       <r>   -22.2294     0.0002   154.0000 </r>
       <r>   -21.9809     0.0000   154.0000 </r>
       <r>   -21.7323     0.0000   154.0000 </r>
       <r>   -21.4838     0.0000   154.0000 </r>
       <r>   -21.2353     0.0000   154.0000 </r>
       <r>   -20.9867     0.0000   154.0000 </r>
       <r>   -20.7382     0.0000   154.0000 </r>
       <r>   -20.4897     0.0000   154.0000 </r>
       <r>   -20.2411     0.0000   154.0000 </r>
       <r>   -19.9926     0.0000   154.0000 </r>
       <r>   -19.7440     0.0000   154.0000 </r>
       <r>   -19.4955     0.0000   154.0000 </r>
       <r>   -19.2470     0.0000   154.0000 </r>
       <r>   -18.9984     0.2788   154.0693 </r>
       <r>   -18.7499    16.2333   158.1038 </r>
       <r>   -18.5014    16.2274   162.1369 </r>
       <r>   -18.2528    70.1610   179.5744 </r>
       <r>   -18.0043    45.0125   190.7616 </r>
       <r>   -17.7558    19.5690   195.6252 </r>
       <r>   -17.5072     1.5079   196.0000 </r>
       <r>   -17.2587     0.0000   196.0000 </r>
       <r>   -17.0102     0.0000   196.0000 </r>
       <r>   -16.7616     0.0000   196.0000 </r>
       <r>   -16.5131     0.0000   196.0000 </r>
       <r>   -16.2645     0.0000   196.0000 </r>
       <r>   -16.0160     0.0000   196.0000 </r>
       <r>   -15.7675     0.0000   196.0000 </r>
       <r>   -15.5189     0.0000   196.0000 </r>
       <r>   -15.2704     0.0000   196.0000 </r>
       <r>   -15.0219     0.0000   196.0000 </r>
       <r>   -14.7733     0.0000   196.0000 </r>
       <r>   -14.5248     0.0000   196.0000 </r>
       <r>   -14.2763     0.0000   196.0000 </r>
       <r>   -14.0277     0.0000   196.0000 </r>
       <r>   -13.7792     0.0000   196.0000 </r>
       <r>   -13.5307     0.0000   196.0000 </r>
       <r>   -13.2821     0.0000   196.0000 </r>
       <r>   -13.0336     0.0000   196.0000 </r>
       <r>   -12.7851     0.0000   196.0000 </r>
       <r>   -12.5365     0.0000   196.0000 </r>
       <r>   -12.2880     0.0000   196.0000 </r>
       <r>   -12.0394     0.0000   196.0000 </r>
       <r>   -11.7909     0.0000   196.0000 </r>
       <r>   -11.5424     0.0000   196.0000 </r>
       <r>   -11.2938     0.0000   196.0000 </r>
       <r>   -11.0453     0.0000   196.0000 </r>
       <r>   -10.7968     0.0000   196.0000 </r>
       <r>   -10.5482     0.0000   196.0000 </r>
       <r>   -10.2997     0.0000   196.0000 </r>
       <r>   -10.0512     0.0000   196.0000 </r>
       <r>    -9.8026     0.0000   196.0000 </r>
       <r>    -9.5541     0.0000   196.0000 </r>
       <r>    -9.3056     0.0000   196.0000 </r>
       <r>    -9.0570     0.0000   196.0000 </r>
       <r>    -8.8085     0.0000   196.0000 </r>
       <r>    -8.5599     0.0000   196.0000 </r>
       <r>    -8.3114     0.0000   196.0000 </r>
       <r>    -8.0629     0.0000   196.0000 </r>
       <r>    -7.8143     0.2119   196.0527 </r>
       <r>    -7.5658     4.7915   197.2435 </r>
       <r>    -7.3173     4.1969   198.2866 </r>
       <r>    -7.0687     8.4167   200.3785 </r>
       <r>    -6.8202    12.3578   203.4498 </r>
       <r>    -6.5717    17.4254   207.7807 </r>
       <r>    -6.3231    14.6437   211.4201 </r>
       <r>    -6.0746    16.3850   215.4924 </r>
       <r>    -5.8261    12.6934   218.6471 </r>
       <r>    -5.5775     5.8237   220.0945 </r>
       <r>    -5.3290     7.3588   221.9235 </r>
       <r>    -5.0804     0.3080   222.0000 </r>
       <r>    -4.8319     0.0000   222.0000 </r>
       <r>    -4.5834     0.0000   222.0000 </r>
       <r>    -4.3348     0.0000   222.0000 </r>
       <r>    -4.0863     0.0243   222.0060 </r>
       <r>    -3.8378     2.9688   222.7439 </r>
       <r>    -3.5892     5.7919   224.1834 </r>
       <r>    -3.3407     8.0531   226.1848 </r>
       <r>    -3.0922    12.6121   229.3194 </r>
       <r>    -2.8436    21.7518   234.7255 </r>
       <r>    -2.5951    28.1101   241.7119 </r>
       <r>    -2.3466    24.5631   247.8167 </r>
       <r>    -2.0980    20.5239   252.9176 </r>
       <r>    -1.8495    14.7393   256.5808 </r>
       <r>    -1.6009     8.7812   258.7633 </r>
       <r>    -1.3524     4.2082   259.8092 </r>
       <r>    -1.1039     0.7635   259.9989 </r>
       <r>    -0.8553     0.0044   260.0000 </r>
       <r>    -0.6068     0.0000   260.0000 </r>
       <r>    -0.3583     0.0000   260.0000 </r>
       <r>    -0.1097     0.0000   260.0000 </r>
       <r>     0.1388     0.0000   260.0000 </r>
       <r>     0.3873     0.0067   260.0017 </r>
       <r>     0.6359     0.6009   260.1510 </r>
       <r>     0.8844     4.3962   261.2436 </r>
       <r>     1.1329     8.2814   263.3018 </r>
       <r>     1.3815    10.7646   265.9772 </r>
       <r>     1.6300    13.5562   269.3464 </r>
       <r>     1.8786    18.8210   274.0241 </r>
       <r>     2.1271    25.8836   280.4571 </r>
       <r>     2.3756    27.0977   287.1918 </r>
       <r>     2.6242    29.8454   294.6095 </r>
       <r>     2.8727    34.9215   303.2887 </r>
       <r>     3.1212    34.4407   311.8485 </r>
       <r>     3.3698    43.9864   322.7807 </r>
       <r>     3.6183    51.9603   335.6947 </r>
       <r>     3.8668    58.9544   350.3469 </r>
       <r>     4.1154    64.4266   366.3592 </r>
       <r>     4.3639    61.1551   381.5584 </r>
       <r>     4.6124    56.0227   395.4821 </r>
       <r>     4.8610    51.0392   408.1672 </r>
       <r>     5.1095    45.1816   419.3964 </r>
       <r>     5.3581    35.5969   428.2435 </r>
       <r>     5.6066    29.4101   435.5530 </r>
       <r>     5.8551    27.0395   442.2732 </r>
       <r>     6.1037    18.8817   446.9660 </r>
       <r>     6.3522    14.0060   450.4470 </r>
       <r>     6.6007     9.9255   452.9139 </r>
       <r>     6.8493    13.8429   456.3543 </r>
       <r>     7.0978    16.5596   460.4700 </r>
       <r>     7.3463    19.4379   465.3010 </r>
       <r>     7.5949    22.6521   470.9308 </r>
       <r>     7.8434    20.3652   475.9923 </r>
       <r>     8.0919    22.4879   481.5813 </r>
       <r>     8.3405    29.2305   488.8462 </r>
       <r>     8.5890    25.0423   495.0701 </r>
       <r>     8.8376    24.0522   501.0479 </r>
       <r>     9.0861    25.2809   507.3311 </r>
       <r>     9.3346    35.0855   516.0511 </r>
       <r>     9.5832    43.7747   526.9307 </r>
       <r>     9.8317    46.6621   538.5279 </r>
       <r>    10.0802    50.2832   551.0250 </r>
       <r>    10.3288    50.2831   563.5222 </r>
       <r>    10.5773    54.4522   577.0555 </r>
       <r>    10.8258    50.3624   589.5723 </r>
       <r>    11.0744    48.7621   601.6915 </r>
       <r>    11.3229    47.9984   613.6208 </r>
       <r>    11.5714    34.6915   622.2428 </r>
       <r>    11.8200     7.0390   623.9923 </r>
       <r>    12.0685     0.0311   624.0000 </r>
       <r>    12.3171     0.0000   624.0000 </r>
       <r>    12.5656     0.0000   624.0000 </r>
       <r>    12.8141     0.0000   624.0000 </r>
       <r>    13.0627     0.0000   624.0000 </r>
       <r>    13.3112     0.0000   624.0000 </r>
       <r>    13.5597     0.0000   624.0000 </r>
       <r>    13.8083     0.0000   624.0000 </r>
       <r>    14.0568     0.0000   624.0000 </r>
       <r>    14.3053     0.0000   624.0000 </r>
       <r>    14.5539     0.0000   624.0000 </r>
       <r>    14.8024     0.0000   624.0000 </r>
       <r>    15.0509     0.0000   624.0000 </r>
      </set>
     </set>
    </array>
   </total>
  </dos>
 </calculation>
 <structure name="finalpos" >
  <crystal>
   <varray name="basis" >
    <v>       8.83984447       0.01332301       0.01256577 </v>
    <v>       0.01938660       8.83968182       0.00062231 </v>
    <v>       0.04438710      -0.01463613       8.84280985 </v>
   </varray>
   <i name="volume">    690.98251487 </i>
   <varray name="rec_basis" >
    <v>       0.11312534      -0.00024806      -0.00056825 </v>
    <v>      -0.00017077       0.11312660       0.00018810 </v>
    <v>      -0.00016074      -0.00000761       0.11308702 </v>
   </varray>
  </crystal>
  <varray name="positions" >
   <v>       0.00192629       0.00373793       0.99982624 </v>
   <v>       0.25866503       0.00811131       0.24302637 </v>
   <v>       0.24774897       0.49119437       0.25340242 </v>
   <v>       0.50412570       0.49532963       0.00144043 </v>
   <v>       0.50024825       0.24864151       0.74004030 </v>
   <v>       0.99836766       0.50340639       0.50084577 </v>
   <v>       0.49570904       0.75686968       0.75544357 </v>
   <v>       0.98454584       0.23843189       0.25605785 </v>
   <v>       0.76509507       0.74352284       0.01190859 </v>
   <v>       0.00066021       0.26151334       0.75081550 </v>
   <v>       0.75117165       0.25164881       0.48893761 </v>
   <v>      -0.00051867       0.74600204       0.74954611 </v>
   <v>       0.25368999       0.50139908       0.74454696 </v>
   <v>       0.24977298       0.27039654       0.98075618 </v>
   <v>       0.52893935       0.25936260       0.24445574 </v>
   <v>       0.74512133       0.98396139       0.27797778 </v>
   <v>       0.73374516       0.23451913       0.98477208 </v>
   <v>       0.23028718       0.72796277      -0.00257164 </v>
   <v>       0.23281335       0.23946556       0.51470781 </v>
   <v>       0.24367628       0.76498640       0.50592000 </v>
   <v>       0.23895930       0.24920079       0.24630019 </v>
   <v>       0.26036934       0.00230078       0.98745014 </v>
   <v>       0.99567618       0.25463439       0.00289863 </v>
   <v>       0.74464969       0.23749751       0.23861692 </v>
   <v>       0.75233632       0.00076103       0.02462791 </v>
   <v>       0.51426095       0.99718132       0.23646990 </v>
   <v>       0.99469453       0.49695929       0.24443701 </v>
   <v>       0.49953449       0.75996581       0.00938703 </v>
   <v>       0.98880686       0.00344421       0.74388435 </v>
   <v>       0.75344273       0.24145149       0.75079728 </v>
   <v>       0.75255581       0.00039534       0.52237289 </v>
   <v>       0.49951391       0.23604615       0.48158966 </v>
   <v>       0.49405538       0.00259871       0.74323401 </v>
   <v>       0.99290010       0.00269033       0.25672726 </v>
   <v>       0.49111237       0.24587360       0.00375800 </v>
   <v>       0.25498361       0.75043344       0.24689716 </v>
   <v>       0.24458165       0.49794326       0.99589129 </v>
   <v>       0.00533481       0.74275498       0.00655760 </v>
   <v>       0.75325946       0.74532939       0.25317171 </v>
   <v>       0.75857393       0.48739120       0.00818547 </v>
   <v>       0.49962267       0.49491122       0.25494830 </v>
   <v>       0.24557157       0.24960243       0.74783896 </v>
   <v>       0.27018997       0.00417658       0.50132256 </v>
   <v>       0.00148643       0.24806470       0.50223361 </v>
   <v>       0.24300082       0.75688119       0.75403868 </v>
   <v>       0.25699066       0.49674692       0.50344400 </v>
   <v>       0.00249940       0.76038166       0.50266104 </v>
   <v>       0.00143845       0.50322443       0.75045355 </v>
   <v>       0.75080538       0.75399217       0.75295857 </v>
   <v>       0.74309877       0.49828457       0.50726363 </v>
   <v>       0.49193057       0.75377263       0.49721811 </v>
   <v>       0.50336995       0.50332918       0.74285187 </v>
   <v>       0.52300128       0.01531293       0.98941687 </v>
   <v>       0.99824643       0.49876847       0.98630956 </v>
   <v>       0.48727282       0.74115831       0.25437121 </v>
   <v>       0.23464723       0.00334829       0.73692488 </v>
   <v>       0.51664405       0.98568162       0.47276319 </v>
   <v>       0.74015227       0.98860871       0.77567635 </v>
   <v>       0.01091684       0.77158361       0.26060268 </v>
   <v>       0.73631535       0.49609106       0.25976379 </v>
   <v>       0.02319512       0.00280364       0.49812909 </v>
   <v>       0.50301276       0.52468972       0.49317846 </v>
   <v>       0.75264214       0.51793801       0.76252713 </v>
   <v>       0.74855737       0.74533149       0.48799396 </v>
  </varray>
 </structure>
</modeling>
