 running on   24 total cores
 distrk:  each k-point on   24 cores,    1 groups
 distr:  one band on    1 cores,   24 groups
 using from now: INCAR     
 vasp.5.4.4.18Apr17-6-g9f103f2a35 (build Oct 18 2021 20:38:43) complex          
  
 POSCAR found type information on POSCAR  Nb Ta Hf N  C  Cr W 
 POSCAR found :  7 types and      64 ions
 scaLAPACK will be used

 ----------------------------------------------------------------------------- 
|                                                                             |
|           W    W    AA    RRRRR   N    N  II  N    N   GGGG   !!!           |
|           W    W   A  A   R    R  NN   N  II  NN   N  G    G  !!!           |
|           W    W  A    A  R    R  N N  N  II  N N  N  G       !!!           |
|           W WW W  AAAAAA  RRRRR   N  N N  II  N  N N  G  GGG   !            |
|           WW  WW  A    A  R   R   N   NN  II  N   NN  G    G                |
|           W    W  A    A  R    R  N    N  II  N    N   GGGG   !!!           |
|                                                                             |
|      For optimal performance we recommend to set                            |
|        NCORE= 4 - approx SQRT( number of cores)                             |
|      NCORE specifies how many cores store one orbital (NPAR=cpu/NCORE).     |
|      This setting can  greatly improve the performance of VASP for DFT.     |
|      The default,   NCORE=1            might be grossly inefficient         |
|      on modern multi-core architectures or massively parallel machines.     |
|      Do your own testing !!!!                                               |
|      Unfortunately you need to use the default for GW and RPA calculations. |
|      (for HF NCORE is supported but not extensively tested yet)             |
|                                                                             |
 ----------------------------------------------------------------------------- 


 ----------------------------------------------------------------------------- 
|                                                                             |
|  ADVICE TO THIS USER RUNNING 'VASP/VAMP'   (HEAR YOUR MASTER'S VOICE ...):  |
|                                                                             |
|      You have a (more or less) 'large supercell' and for larger cells       |
|      it might be more efficient to use real space projection operators      |
|      So try LREAL= Auto  in the INCAR   file.                               |
|      Mind: If you want to do a very accurate calculations keep the          |
|      reciprocal projection scheme          (i.e. LREAL=.FALSE.)             |
|                                                                             |
 ----------------------------------------------------------------------------- 

 LDA part: xc-table for Pade appr. of Perdew
 POSCAR, INCAR and KPOINTS ok, starting setup
 FFT: planning ...
 WAVECAR not read
 entering main loop
       N       E                     dE             d eps       ncg     rms          rms(c)
DAV:   1     0.638509760058E+04    0.63851E+04   -0.21679E+05  8736   0.152E+03
DAV:   2     0.256639855193E+03   -0.61285E+04   -0.59118E+04  9072   0.639E+02
DAV:   3    -0.692806537388E+03   -0.94945E+03   -0.89566E+03 13776   0.216E+02
DAV:   4    -0.784934876580E+03   -0.92128E+02   -0.89046E+02 14592   0.818E+01
DAV:   5    -0.797853960414E+03   -0.12919E+02   -0.12650E+02 17472   0.264E+01    0.728E+01
RMM:   6    -0.977444740369E+03   -0.17959E+03   -0.23283E+03 13217   0.135E+02    0.126E+02
RMM:   7    -0.661573745570E+03    0.31587E+03   -0.26148E+02 12699   0.446E+01    0.404E+01
RMM:   8    -0.677599633669E+03   -0.16026E+02   -0.79320E+01 15761   0.144E+01    0.411E+01
RMM:   9    -0.667908556529E+03    0.96911E+01   -0.13530E+01 13544   0.117E+01    0.275E+01
RMM:  10    -0.665133518742E+03    0.27750E+01   -0.11826E+01 16273   0.530E+00    0.142E+01
RMM:  11    -0.666749398502E+03   -0.16159E+01   -0.45976E+00 12394   0.672E+00    0.270E+01
RMM:  12    -0.663833367607E+03    0.29160E+01   -0.41993E+00 14169   0.484E+00    0.106E+01
RMM:  13    -0.665003490008E+03   -0.11701E+01   -0.26250E+00 14870   0.380E+00    0.195E+01
RMM:  14    -0.663801608720E+03    0.12019E+01   -0.18585E+00 14415   0.312E+00    0.764E+00
RMM:  15    -0.664034647777E+03   -0.23304E+00   -0.90414E-01 14741   0.211E+00    0.110E+01
RMM:  16    -0.663391626651E+03    0.64302E+00   -0.79533E-01 14779   0.174E+00    0.326E+00
RMM:  17    -0.663433730919E+03   -0.42104E-01   -0.43623E-01 14607   0.140E+00    0.450E+00
RMM:  18    -0.663383972130E+03    0.49759E-01   -0.64891E-01 15725   0.124E+00    0.113E+00
RMM:  19    -0.663392159832E+03   -0.81877E-02   -0.19493E-01 13121   0.117E+00    0.992E-01
RMM:  20    -0.663381472083E+03    0.10688E-01   -0.63904E-02 14787   0.511E-01    0.634E-01
RMM:  21    -0.663379811829E+03    0.16603E-02   -0.73412E-02 14984   0.417E-01    0.221E-01
RMM:  22    -0.663381266437E+03   -0.14546E-02   -0.23594E-02 14704   0.296E-01    0.792E-02
RMM:  23    -0.663383641383E+03   -0.23749E-02   -0.24823E-02 14412   0.199E-01    0.519E-02
RMM:  24    -0.663384190496E+03   -0.54911E-03   -0.66801E-03 13148   0.147E-01    0.633E-02
RMM:  25    -0.663384760811E+03   -0.57031E-03   -0.63942E-03 12932   0.993E-02    0.315E-02
RMM:  26    -0.663384954812E+03   -0.19400E-03   -0.22491E-03 11453   0.717E-02    0.169E-02
RMM:  27    -0.663385100722E+03   -0.14591E-03   -0.15803E-03 11492   0.509E-02    0.999E-03
RMM:  28    -0.663385165245E+03   -0.64523E-04   -0.68974E-04 10665   0.377E-02    0.921E-03
RMM:  29    -0.663385204421E+03   -0.39176E-04   -0.39303E-04 10535   0.323E-02    0.524E-03
RMM:  30    -0.663385227960E+03   -0.23539E-04   -0.26333E-04 10085   0.258E-02    0.750E-03
RMM:  31    -0.663385242239E+03   -0.14279E-04   -0.13769E-04  9725   0.217E-02    0.260E-03
RMM:  32    -0.663385250528E+03   -0.82894E-05   -0.92684E-05  9169   0.180E-02
   1 F= -.66338525E+03 E0= -.66327732E+03  d E =-.215871E+00
 writing wavefunctions
