  64  64   0   0
  0.1104155E+02  0.8936529E-09  0.8890983E-09  0.8894038E-09  0.5000000E-15
  1.000000000000000E-004
  CAR 
 HECN                                    
     13.41473111    -38.07041186  301      8.13375946      1.00000000
    -38.070  0.0000E+00  0.0000E+00
    -37.899  0.0000E+00  0.0000E+00
    -37.727  0.0000E+00  0.0000E+00
    -37.556  0.0000E+00  0.0000E+00
    -37.384  0.0000E+00  0.0000E+00
    -37.212  0.0000E+00  0.0000E+00
    -37.041  0.0000E+00  0.0000E+00
    -36.869  0.0000E+00  0.0000E+00
    -36.697  0.0000E+00  0.0000E+00
    -36.526  0.0000E+00  0.0000E+00
    -36.354  0.0000E+00  0.0000E+00
    -36.183  0.9088E-11  0.1560E-11
    -36.011  0.4146E-05  0.7116E-06
    -35.839  0.7159E-02  0.1229E-02
    -35.668  0.1109E+00  0.2026E-01
    -35.496  0.4186E+00  0.9211E-01
    -35.325  0.1139E+01  0.2876E+00
    -35.153  0.4130E+00  0.3584E+00
    -34.981  0.9031E-02  0.3600E+00
    -34.810  0.2274E-05  0.3600E+00
    -34.638  0.2426E-11  0.3600E+00
    -34.466  0.0000E+00  0.3600E+00
    -34.295  0.0000E+00  0.3600E+00
    -34.123  0.0000E+00  0.3600E+00
    -33.952  0.0000E+00  0.3600E+00
    -33.780  0.0000E+00  0.3600E+00
    -33.608  0.0000E+00  0.3600E+00
    -33.437  0.0000E+00  0.3600E+00
    -33.265  0.0000E+00  0.3600E+00
    -33.094  0.0000E+00  0.3600E+00
    -32.922  0.0000E+00  0.3600E+00
    -32.750  0.0000E+00  0.3600E+00
    -32.579  0.0000E+00  0.3600E+00
    -32.407  0.0000E+00  0.3600E+00
    -32.235  0.0000E+00  0.3600E+00
    -32.064  0.0000E+00  0.3600E+00
    -31.892  0.0000E+00  0.3600E+00
    -31.721  0.1857E-10  0.3600E+00
    -31.549  0.7202E-05  0.3600E+00
    -31.377  0.1323E-01  0.3623E+00
    -31.206  0.3436E+00  0.4212E+00
    -31.034  0.9053E+00  0.5766E+00
    -30.862  0.5813E+00  0.6764E+00
    -30.691  0.2427E+00  0.7180E+00
    -30.519  0.1158E-01  0.7200E+00
    -30.348  0.7513E-05  0.7200E+00
    -30.176  0.2203E-10  0.7200E+00
    -30.004  0.0000E+00  0.7200E+00
    -29.833  0.0000E+00  0.7200E+00
    -29.661  0.0000E+00  0.7200E+00
    -29.490  0.0000E+00  0.7200E+00
    -29.318  0.0000E+00  0.7200E+00
    -29.146  0.0000E+00  0.7200E+00
    -28.975  0.0000E+00  0.7200E+00
    -28.803  0.0000E+00  0.7200E+00
    -28.631  0.0000E+00  0.7200E+00
    -28.460  0.0000E+00  0.7200E+00
    -28.288  0.0000E+00  0.7200E+00
    -28.117  0.3261E-11  0.7200E+00
    -27.945  0.2144E-05  0.7200E+00
    -27.773  0.5374E-02  0.7209E+00
    -27.602  0.1368E+00  0.7444E+00
    -27.430  0.3447E+00  0.8036E+00
    -27.259  0.3797E+00  0.8687E+00
    -27.087  0.5266E+00  0.9591E+00
    -26.915  0.3189E+00  0.1014E+01
    -26.744  0.2730E+00  0.1061E+01
    -26.572  0.1116E+00  0.1080E+01
    -26.400  0.9284E-03  0.1080E+01
    -26.229  0.4818E-02  0.1081E+01
    -26.057  0.1765E+00  0.1111E+01
    -25.886  0.4309E+00  0.1185E+01
    -25.714  0.6446E+00  0.1296E+01
    -25.542  0.8701E+00  0.1445E+01
    -25.371  0.3080E+00  0.1498E+01
    -25.199  0.1243E-01  0.1500E+01
    -25.028  0.6642E-05  0.1500E+01
    -24.856  0.1661E-10  0.1500E+01
    -24.684  0.0000E+00  0.1500E+01
    -24.513  0.0000E+00  0.1500E+01
    -24.341  0.0000E+00  0.1500E+01
    -24.169  0.0000E+00  0.1500E+01
    -23.998  0.0000E+00  0.1500E+01
    -23.826  0.0000E+00  0.1500E+01
    -23.655  0.0000E+00  0.1500E+01
    -23.483  0.1233E-11  0.1500E+01
    -23.311  0.1175E-05  0.1500E+01
    -23.140  0.4564E-02  0.1501E+01
    -22.968  0.1594E+00  0.1528E+01
    -22.796  0.1842E+00  0.1560E+01
    -22.625  0.2809E+00  0.1608E+01
    -22.453  0.7875E+00  0.1743E+01
    -22.282  0.6433E+00  0.1854E+01
    -22.110  0.3022E+00  0.1905E+01
    -21.938  0.8262E-01  0.1920E+01
    -21.767  0.2563E-02  0.1920E+01
    -21.595  0.5208E-06  0.1920E+01
    -21.424  0.3786E-12  0.1920E+01
    -21.252  0.0000E+00  0.1920E+01
    -21.080  0.0000E+00  0.1920E+01
    -20.909  0.0000E+00  0.1920E+01
    -20.737  0.0000E+00  0.1920E+01
    -20.565  0.0000E+00  0.1920E+01
    -20.394  0.0000E+00  0.1920E+01
    -20.222  0.0000E+00  0.1920E+01
    -20.051  0.0000E+00  0.1920E+01
    -19.879  0.0000E+00  0.1920E+01
    -19.707  0.0000E+00  0.1920E+01
    -19.536  0.0000E+00  0.1920E+01
    -19.364  0.0000E+00  0.1920E+01
    -19.193  0.0000E+00  0.1920E+01
    -19.021  0.0000E+00  0.1920E+01
    -18.849  0.0000E+00  0.1920E+01
    -18.678  0.0000E+00  0.1920E+01
    -18.506  0.0000E+00  0.1920E+01
    -18.334  0.0000E+00  0.1920E+01
    -18.163  0.0000E+00  0.1920E+01
    -17.991  0.0000E+00  0.1920E+01
    -17.820  0.0000E+00  0.1920E+01
    -17.648  0.0000E+00  0.1920E+01
    -17.476  0.0000E+00  0.1920E+01
    -17.305  0.0000E+00  0.1920E+01
    -17.133  0.0000E+00  0.1920E+01
    -16.962  0.0000E+00  0.1920E+01
    -16.790  0.0000E+00  0.1920E+01
    -16.618  0.0000E+00  0.1920E+01
    -16.447  0.0000E+00  0.1920E+01
    -16.275  0.0000E+00  0.1920E+01
    -16.103  0.0000E+00  0.1920E+01
    -15.932  0.0000E+00  0.1920E+01
    -15.760  0.0000E+00  0.1920E+01
    -15.589  0.0000E+00  0.1920E+01
    -15.417  0.0000E+00  0.1920E+01
    -15.245  0.0000E+00  0.1920E+01
    -15.074  0.0000E+00  0.1920E+01
    -14.902  0.0000E+00  0.1920E+01
    -14.730  0.0000E+00  0.1920E+01
    -14.559  0.0000E+00  0.1920E+01
    -14.387  0.0000E+00  0.1920E+01
    -14.216  0.0000E+00  0.1920E+01
    -14.044  0.0000E+00  0.1920E+01
    -13.872  0.0000E+00  0.1920E+01
    -13.701  0.0000E+00  0.1920E+01
    -13.529  0.0000E+00  0.1920E+01
    -13.358  0.0000E+00  0.1920E+01
    -13.186  0.0000E+00  0.1920E+01
    -13.014  0.0000E+00  0.1920E+01
    -12.843  0.0000E+00  0.1920E+01
    -12.671  0.0000E+00  0.1920E+01
    -12.499  0.0000E+00  0.1920E+01
    -12.328  0.0000E+00  0.1920E+01
    -12.156  0.0000E+00  0.1920E+01
    -11.985  0.0000E+00  0.1920E+01
    -11.813  0.0000E+00  0.1920E+01
    -11.641  0.0000E+00  0.1920E+01
    -11.470  0.0000E+00  0.1920E+01
    -11.298  0.0000E+00  0.1920E+01
    -11.127  0.0000E+00  0.1920E+01
    -10.955  0.0000E+00  0.1920E+01
    -10.783  0.0000E+00  0.1920E+01
    -10.612  0.0000E+00  0.1920E+01
    -10.440  0.0000E+00  0.1920E+01
    -10.268  0.0000E+00  0.1920E+01
    -10.097  0.0000E+00  0.1920E+01
     -9.925  0.0000E+00  0.1920E+01
     -9.754  0.0000E+00  0.1920E+01
     -9.582  0.0000E+00  0.1920E+01
     -9.410  0.0000E+00  0.1920E+01
     -9.239  0.0000E+00  0.1920E+01
     -9.067  0.0000E+00  0.1920E+01
     -8.895  0.1176E-12  0.1920E+01
     -8.724  0.8169E-07  0.1920E+01
     -8.552  0.2720E-03  0.1920E+01
     -8.381  0.1535E-01  0.1923E+01
     -8.209  0.6947E-01  0.1935E+01
     -8.037  0.5669E-01  0.1944E+01
     -7.866  0.8318E-01  0.1959E+01
     -7.694  0.8400E-01  0.1973E+01
     -7.523  0.1227E+00  0.1994E+01
     -7.351  0.1015E+00  0.2012E+01
     -7.179  0.1850E+00  0.2043E+01
     -7.008  0.1873E+00  0.2075E+01
     -6.836  0.2027E+00  0.2110E+01
     -6.664  0.1993E+00  0.2144E+01
     -6.493  0.1177E+00  0.2165E+01
     -6.321  0.8500E-01  0.2179E+01
     -6.150  0.4676E-02  0.2180E+01
     -5.978  0.1756E-05  0.2180E+01
     -5.806  0.2464E-11  0.2180E+01
     -5.635  0.1358E-10  0.2180E+01
     -5.463  0.2055E-05  0.2180E+01
     -5.292  0.1512E-02  0.2180E+01
     -5.120  0.2872E-01  0.2185E+01
     -4.948  0.6355E-01  0.2196E+01
     -4.777  0.2268E-01  0.2200E+01
     -4.605  0.3181E-01  0.2205E+01
     -4.433  0.9816E-01  0.2222E+01
     -4.262  0.8447E-01  0.2237E+01
     -4.090  0.1073E+00  0.2255E+01
     -3.919  0.1290E+00  0.2277E+01
     -3.747  0.1833E+00  0.2309E+01
     -3.575  0.2075E+00  0.2344E+01
     -3.404  0.2169E+00  0.2382E+01
     -3.232  0.2075E+00  0.2417E+01
     -3.061  0.2054E+00  0.2453E+01
     -2.889  0.1670E+00  0.2481E+01
     -2.717  0.1411E+00  0.2505E+01
     -2.546  0.1518E+00  0.2531E+01
     -2.374  0.9899E-01  0.2548E+01
     -2.202  0.4437E-01  0.2556E+01
     -2.031  0.2124E-01  0.2560E+01
     -1.859  0.1796E-02  0.2560E+01
     -1.688  0.5253E-05  0.2560E+01
     -1.516  0.9402E-10  0.2560E+01
     -1.344  0.5750E-17  0.2560E+01
     -1.173  0.0000E+00  0.2560E+01
     -1.001  0.0000E+00  0.2560E+01
     -0.829  0.0000E+00  0.2560E+01
     -0.658  0.3487E-11  0.2560E+01
     -0.486  0.7268E-06  0.2560E+01
     -0.315  0.7063E-03  0.2560E+01
     -0.143  0.8732E-02  0.2562E+01
      0.029  0.1322E-01  0.2564E+01
      0.200  0.6029E-01  0.2574E+01
      0.372  0.1108E+00  0.2593E+01
      0.543  0.7150E-01  0.2606E+01
      0.715  0.1382E+00  0.2629E+01
      0.887  0.1360E+00  0.2653E+01
      1.058  0.1867E+00  0.2685E+01
      1.230  0.2427E+00  0.2726E+01
      1.402  0.2940E+00  0.2777E+01
      1.573  0.2506E+00  0.2820E+01
      1.745  0.2559E+00  0.2864E+01
      1.916  0.2729E+00  0.2910E+01
      2.088  0.3294E+00  0.2967E+01
      2.260  0.3058E+00  0.3019E+01
      2.431  0.3519E+00  0.3080E+01
      2.603  0.3842E+00  0.3146E+01
      2.774  0.4350E+00  0.3220E+01
      2.946  0.5173E+00  0.3309E+01
      3.118  0.5645E+00  0.3406E+01
      3.289  0.6031E+00  0.3510E+01
      3.461  0.6014E+00  0.3613E+01
      3.633  0.6130E+00  0.3718E+01
      3.804  0.5789E+00  0.3817E+01
      3.976  0.5436E+00  0.3911E+01
      4.147  0.4901E+00  0.3995E+01
      4.319  0.4516E+00  0.4072E+01
      4.491  0.4156E+00  0.4144E+01
      4.662  0.3626E+00  0.4206E+01
      4.834  0.3169E+00  0.4260E+01
      5.005  0.2868E+00  0.4309E+01
      5.177  0.2616E+00  0.4354E+01
      5.349  0.2372E+00  0.4395E+01
      5.520  0.1731E+00  0.4425E+01
      5.692  0.1572E+00  0.4452E+01
      5.864  0.1147E+00  0.4471E+01
      6.035  0.6543E-01  0.4483E+01
      6.207  0.1081E+00  0.4501E+01
      6.378  0.1521E+00  0.4527E+01
      6.550  0.1633E+00  0.4555E+01
      6.722  0.1461E+00  0.4580E+01
      6.893  0.2061E+00  0.4616E+01
      7.065  0.2304E+00  0.4655E+01
      7.237  0.1883E+00  0.4688E+01
      7.408  0.1836E+00  0.4719E+01
      7.580  0.2369E+00  0.4760E+01
      7.751  0.2894E+00  0.4809E+01
      7.923  0.2840E+00  0.4858E+01
      8.095  0.2510E+00  0.4901E+01
      8.266  0.2435E+00  0.4943E+01
      8.438  0.2833E+00  0.4992E+01
      8.609  0.3490E+00  0.5052E+01
      8.781  0.4001E+00  0.5120E+01
      8.953  0.4233E+00  0.5193E+01
      9.124  0.4453E+00  0.5269E+01
      9.296  0.4945E+00  0.5354E+01
      9.468  0.4926E+00  0.5439E+01
      9.639  0.5041E+00  0.5525E+01
      9.811  0.4979E+00  0.5611E+01
      9.982  0.4769E+00  0.5693E+01
     10.154  0.4800E+00  0.5775E+01
     10.326  0.4947E+00  0.5860E+01
     10.497  0.4521E+00  0.5937E+01
     10.669  0.4514E+00  0.6015E+01
     10.840  0.4479E+00  0.6092E+01
     11.012  0.3233E+00  0.6147E+01
     11.184  0.7271E-01  0.6160E+01
     11.355  0.1899E-02  0.6160E+01
     11.527  0.7799E-06  0.6160E+01
     11.699  0.1435E-11  0.6160E+01
     11.870  0.0000E+00  0.6160E+01
     12.042  0.0000E+00  0.6160E+01
     12.213  0.0000E+00  0.6160E+01
     12.385  0.0000E+00  0.6160E+01
     12.557  0.0000E+00  0.6160E+01
     12.728  0.0000E+00  0.6160E+01
     12.900  0.0000E+00  0.6160E+01
     13.071  0.0000E+00  0.6160E+01
     13.243  0.0000E+00  0.6160E+01
     13.415  0.0000E+00  0.6160E+01
