HECN                                    
           1
     8.936479    0.022648   -0.019388
     0.029314    8.890930    0.008198
     0.012607   -0.007124    8.894026
   Hf   Ta   Ti   N    C    Cr   W 
     7     6     7    13    19     6     6
Direct configuration=     1
   0.00176869  0.00134550  0.99738305
   0.26860936  0.00325284  0.24468187
   0.24678271  0.49352851  0.24686134
   0.49915360  0.50366812  0.00137599
   0.50470266  0.24491293  0.74183578
   0.99957740  0.50169482  0.50076232
   0.49640503  0.75947872  0.74998510
   0.99179848  0.24225917  0.24817761
   0.75460178  0.74637969  0.00953005
   0.00174421  0.25070098  0.75368717
   0.75104604  0.24733629  0.49827384
   0.99949697  0.75117372  0.75074481
   0.25073458  0.49569621  0.74959982
   0.26620110  0.24746781  0.99093000
   0.51442607  0.25420814  0.24329815
   0.73428898  0.99050491  0.25953325
   0.72465626  0.24311704  0.01038346
   0.24461662  0.74434708  0.99769329
   0.25144889  0.24603575  0.50588407
   0.25139109  0.75197685  0.50235195
   0.24926054  0.24803240  0.24678269
   0.25741579  0.00134882  0.99476189
   0.00057550  0.25239795  0.99974273
   0.74814590  0.24034188  0.24569727
   0.74528501  0.00058243  0.00769486
   0.50870324  0.00001571  0.25681484
   0.99539299  0.49972362  0.24433789
   0.49990070  0.76070340  0.00520589
   0.98742097  0.00363626  0.74367107
   0.75351244  0.24512705  0.75106500
   0.76005136  0.00322214  0.49432180
   0.50197907  0.24572993  0.49175892
   0.51663447  0.00176495  0.74543260
   0.99907695  0.00076509  0.25081358
   0.49587561  0.24385058  0.00197651
   0.25472155  0.74927963  0.24915998
   0.24261371  0.49910780  0.99612888
   0.00319651  0.74317914  0.00388917
   0.74632279  0.74751532  0.25288661
   0.76115314  0.49299467  0.00643987
   0.49797234  0.50052179  0.25036275
   0.25137807  0.24627286  0.74917182
   0.25659195  0.99953510  0.51032438
   0.00383168  0.24894302  0.50029764
   0.24486578  0.75782944  0.75100461
   0.25519512  0.50132523  0.49983171
   0.99939135  0.75645982  0.49986907
   0.00044852  0.50070753  0.75338473
   0.74973319  0.75668682  0.74897831
   0.74738722  0.49524534  0.50708818
   0.49801685  0.76569378  0.48901293
   0.50428483  0.50242036  0.74326095
   0.51707135  0.00823751  0.97531754
   0.99954134  0.51188026  0.98176360
   0.47856565  0.73681215  0.25677279
   0.22756954  0.01251290  0.74461230
   0.47450747  0.99388559  0.51549047
   0.73657012  0.97527075  0.78258321
   0.01554405  0.76426828  0.25391510
   0.73966359  0.49590697  0.25318149
   0.01915363  0.00303483  0.49660656
   0.50341134  0.51683915  0.48974991
   0.75347291  0.51339668  0.76253443
   0.74514370  0.73790973  0.49333070
HECN                                    
           1
     8.542947    0.023893   -0.020513
     0.030207    8.515630    0.005572
     0.010122   -0.009094    8.518808
   Hf   Ta   Ti   N    C    Cr   W 
     7     6     7    13    19     6     6
Direct configuration=     2
   0.00222198  0.99967223  0.99776671
   0.26920920  0.00237233  0.24444984
   0.24747344  0.49452054  0.24709634
   0.49963754  0.50359943  0.00186377
   0.50541757  0.24408031  0.74321221
   0.99929357  0.50156172  0.50161441
   0.49699840  0.76068143  0.74949199
   0.99063182  0.24046187  0.24945288
   0.75600234  0.74650042  0.00969823
   0.00231311  0.25140721  0.75261134
   0.75210769  0.24705400  0.49677598
   0.99958983  0.75004162  0.75053672
   0.25000319  0.49518011  0.74969258
   0.26223948  0.24474647  0.99029585
   0.51192866  0.25399188  0.24831231
   0.73247122  0.99031438  0.26043941
   0.73333655  0.24167505  0.00613115
   0.24414784  0.74545164  0.99740240
   0.25077408  0.24531455  0.50709825
   0.25153945  0.75252840  0.50221596
   0.24860717  0.24806302  0.24660527
   0.25580731  0.00179028  0.99609912
   0.00039388  0.25135471  0.99975109
   0.74808761  0.24091083  0.24750928
   0.74507755  0.99959964  0.00605442
   0.50858764  0.00058710  0.25689678
   0.99603179  0.49928733  0.24577116
   0.50071199  0.76005677  0.00387226
   0.98870378  0.00413718  0.74409256
   0.75337013  0.24591672  0.74975080
   0.76112088  0.00471424  0.49274185
   0.50314896  0.24603809  0.49233473
   0.51822683  0.00177541  0.74621812
   0.99997895  0.00058532  0.25134440
   0.49777974  0.24353561  0.00076271
   0.25377850  0.74970259  0.24921041
   0.24333700  0.49951346  0.99553296
   0.00204227  0.74419641  0.00352380
   0.74691879  0.74654149  0.25332289
   0.76035267  0.49414242  0.00556460
   0.49944736  0.50133081  0.25148690
   0.25019557  0.24697689  0.74875339
   0.25608692  0.00003163  0.51019003
   0.00288120  0.24800133  0.50031800
   0.24413363  0.75686231  0.75113204
   0.25515322  0.50129118  0.50028003
   0.99927673  0.75666821  0.49979524
   0.00020317  0.50120610  0.75376433
   0.74987397  0.75630491  0.74950655
   0.74676752  0.49631715  0.50605569
   0.49900909  0.76430964  0.48899905
   0.50389940  0.50244634  0.74338934
   0.51797209  0.00951857  0.97357582
   0.99889808  0.51269476  0.97958965
   0.47632005  0.73540470  0.25849758
   0.22608810  0.01354386  0.74333356
   0.47096318  0.99242957  0.51591389
   0.73409085  0.97308373  0.78513807
   0.01761078  0.76756394  0.25433739
   0.73700036  0.49682584  0.25322539
   0.02130649  0.00334020  0.49566444
   0.50493491  0.51948452  0.48766477
   0.75427297  0.51581636  0.76418984
   0.74421434  0.73494302  0.49208165
HECN                                    
           1
     8.799285    0.023082   -0.019780
     0.029625    8.760092    0.007282
     0.011741   -0.007811    8.763217
   Hf   Ta   Ti   N    C    Cr   W 
     7     6     7    13    19     6     6
Direct configuration=     3
   0.00191278  0.00081021  0.99750602
   0.26880037  0.00297130  0.24460770
   0.24700292  0.49384596  0.24693624
   0.49930770  0.50364615  0.00153198
   0.50493009  0.24464644  0.74227618
   0.99948682  0.50165203  0.50103500
   0.49659437  0.75986368  0.74982702
   0.99142626  0.24168375  0.24858612
   0.75504802  0.74641853  0.00958361
   0.00192576  0.25092721  0.75334276
   0.75138449  0.24724644  0.49779451
   0.99952640  0.75081160  0.75067843
   0.25050144  0.49553096  0.74962970
   0.26493850  0.24659662  0.99072824
   0.51362954  0.25413760  0.24490277
   0.73370964  0.99044347  0.25982348
   0.72742235  0.24265805  0.00902190
   0.24446749  0.74470041  0.99760010
   0.25123358  0.24580469  0.50627276
   0.25143847  0.75215335  0.50230832
   0.24905240  0.24804211  0.24672603
   0.25690317  0.00148952  0.99518989
   0.00051745  0.25206417  0.99974562
   0.74812714  0.24052356  0.24627690
   0.74521900  0.00026828  0.00717024
   0.50866649  0.00019847  0.25684097
   0.99559623  0.49958390  0.24479641
   0.50015929  0.76049692  0.00477921
   0.98782972  0.00379666  0.74380562
   0.75346744  0.24537989  0.75064443
   0.76039262  0.00369996  0.49381589
   0.50235178  0.24582862  0.49194290
   0.51714170  0.00176844  0.74568366
   0.99936423  0.00070764  0.25098330
   0.49648243  0.24375038  0.00158793
   0.25442114  0.74941476  0.24917619
   0.24284432  0.49923782  0.99593804
   0.00282898  0.74350444  0.00377227
   0.74651245  0.74720381  0.25302627
   0.76089843  0.49336187  0.00615976
   0.49844227  0.50078067  0.25072202
   0.25100149  0.24649795  0.74903801
   0.25643115  0.99969388  0.51028139
   0.00352868  0.24864159  0.50030448
   0.24463232  0.75751989  0.75104567
   0.25518170  0.50131425  0.49997515
   0.99935488  0.75652648  0.49984543
   0.00037037  0.50086692  0.75350612
   0.74977790  0.75656457  0.74914736
   0.74719011  0.49558830  0.50675775
   0.49833276  0.76525115  0.48900858
   0.50416201  0.50242858  0.74330208
   0.51735883  0.00864781  0.97475994
   0.99933686  0.51214111  0.98106804
   0.47784966  0.73636117  0.25732521
   0.22709790  0.01284268  0.74420323
   0.47337789  0.99341907  0.51562676
   0.73577942  0.97457019  0.78340138
   0.01620304  0.76532290  0.25404928
   0.73881519  0.49620044  0.25319579
   0.01983976  0.00313308  0.49630475
   0.50389754  0.51768609  0.48908208
   0.75372797  0.51417062  0.76306348
   0.74484728  0.73696070  0.49293177
HECN                                    
           1
     8.795077    0.023095   -0.019792
     0.029635    8.756079    0.007254
     0.011714   -0.007832    8.759204
   Hf   Ta   Ti   N    C    Cr   W 
     7     6     7    13    19     6     6
Direct configuration=     4
   0.00191770  0.00079205  0.99751019
   0.26880688  0.00296174  0.24460519
   0.24701042  0.49385672  0.24693879
   0.49931296  0.50364540  0.00153727
   0.50493786  0.24463741  0.74229112
   0.99948373  0.50165059  0.50104425
   0.49660081  0.75987673  0.74982167
   0.99141360  0.24166425  0.24859996
   0.75506323  0.74641984  0.00958544
   0.00193193  0.25093487  0.75333108
   0.75139601  0.24724338  0.49777825
   0.99952741  0.75079931  0.75067617
   0.25049350  0.49552536  0.74963071
   0.26489548  0.24656709  0.99072135
   0.51360242  0.25413526  0.24495718
   0.73368990  0.99044140  0.25983331
   0.72751662  0.24264239  0.00897576
   0.24446240  0.74471240  0.99759695
   0.25122625  0.24579686  0.50628594
   0.25144009  0.75215934  0.50230684
   0.24904530  0.24804245  0.24672410
   0.25688570  0.00149431  0.99520440
   0.00051548  0.25205285  0.99974571
   0.74812651  0.24052973  0.24629656
   0.74521674  0.00025761  0.00715244
   0.50866523  0.00020467  0.25684186
   0.99560317  0.49957917  0.24481197
   0.50016810  0.76048990  0.00476473
   0.98784365  0.00380210  0.74381020
   0.75346589  0.24538846  0.75063017
   0.76040424  0.00371615  0.49379874
   0.50236448  0.24583197  0.49194915
   0.51715900  0.00176855  0.74569218
   0.99937403  0.00070569  0.25098906
   0.49650311  0.24374696  0.00157476
   0.25441090  0.74941935  0.24917673
   0.24285218  0.49924222  0.99593157
   0.00281644  0.74351548  0.00376831
   0.74651892  0.74719324  0.25303101
   0.76088973  0.49337432  0.00615026
   0.49845828  0.50078945  0.25073422
   0.25098865  0.24650559  0.74903347
   0.25642566  0.99969927  0.51027993
   0.00351836  0.24863137  0.50030470
   0.24462437  0.75750939  0.75104705
   0.25518124  0.50131388  0.49998002
   0.99935363  0.75652874  0.49984462
   0.00036771  0.50087233  0.75351024
   0.74977943  0.75656043  0.74915309
   0.74718338  0.49559993  0.50674655
   0.49834353  0.76523613  0.48900843
   0.50415783  0.50242886  0.74330347
   0.51736861  0.00866172  0.97474104
   0.99932988  0.51214995  0.98104445
   0.47782528  0.73634590  0.25734393
   0.22708181  0.01285387  0.74418936
   0.47333940  0.99340328  0.51563135
   0.73575250  0.97454646  0.78342910
   0.01622548  0.76535866  0.25405387
   0.73878627  0.49621042  0.25319627
   0.01986314  0.00313639  0.49629452
   0.50391409  0.51771480  0.48905946
   0.75373666  0.51419688  0.76308145
   0.74483719  0.73692850  0.49291821
HECN                                    
           1
     8.789475    0.024711   -0.018137
     0.031205    8.763328    0.006493
     0.013371   -0.008609    8.765812
   Hf   Ta   Ti   N    C    Cr   W 
     7     6     7    13    19     6     6
Direct configuration=     5
   0.00216583  0.99938556  0.99753925
   0.26874757  0.00243695  0.24461801
   0.24714544  0.49446203  0.24716771
   0.49964300  0.50325309  0.00166528
   0.50530098  0.24455473  0.74335921
   0.99939451  0.50153706  0.50123865
   0.49653931  0.76013117  0.74960850
   0.99130857  0.24132776  0.24935990
   0.75555244  0.74692201  0.00948616
   0.00189275  0.25125860  0.75263388
   0.75183511  0.24695339  0.49704239
   0.99950587  0.75060029  0.75052236
   0.25024175  0.49562055  0.74951760
   0.26104452  0.24447662  0.99074197
   0.51081464  0.25360067  0.24890965
   0.73305395  0.99066298  0.26000518
   0.73534694  0.24177776  0.00496598
   0.24478823  0.74605268  0.99731366
   0.25104886  0.24565139  0.50644922
   0.25140546  0.75232594  0.50226861
   0.24901867  0.24812116  0.24667820
   0.25643556  0.00148951  0.99538590
   0.00020160  0.25237092  0.99988865
   0.74764851  0.24060312  0.24725947
   0.74519807  0.99966460  0.00686517
   0.50877268  0.00025040  0.25688679
   0.99578564  0.49957016  0.24506681
   0.50014499  0.76069274  0.00456069
   0.98824075  0.00399464  0.74383580
   0.75347907  0.24558875  0.75036851
   0.76066888  0.00403188  0.49354045
   0.50242437  0.24585192  0.49183796
   0.51744936  0.00196444  0.74576635
   0.99965748  0.00087466  0.25104802
   0.49809313  0.24321137  0.00108361
   0.25418531  0.74961128  0.24919875
   0.24282748  0.49944933  0.99578072
   0.00259798  0.74402862  0.00368671
   0.74668869  0.74681388  0.25313228
   0.76070529  0.49347688  0.00581255
   0.49863677  0.50124179  0.25075057
   0.25047965  0.24660236  0.74876196
   0.25635688  0.99985170  0.51011659
   0.00335675  0.24831947  0.50040231
   0.24439582  0.75733922  0.75111163
   0.25513081  0.50127027  0.50013090
   0.99945597  0.75658652  0.49983307
   0.00022316  0.50117817  0.75355525
   0.74975816  0.75648077  0.74936868
   0.74710783  0.49576478  0.50642756
   0.49849223  0.76500144  0.48894173
   0.50397441  0.50244483  0.74339399
   0.51713525  0.00940786  0.97442854
   0.99909710  0.51200346  0.98067710
   0.47721452  0.73616966  0.25772839
   0.22665466  0.01316045  0.74395843
   0.47242362  0.99316504  0.51562972
   0.73512853  0.97431465  0.78394094
   0.01664736  0.76602828  0.25426373
   0.73819867  0.49644356  0.25329503
   0.02025243  0.00326942  0.49615457
   0.50429819  0.51824410  0.48876431
   0.75398632  0.51455701  0.76355643
   0.74459607  0.73650346  0.49271221
HECN                                    
           1
     8.786555    0.025553   -0.017274
     0.032023    8.767106    0.006095
     0.014235   -0.009015    8.769256
   Hf   Ta   Ti   N    C    Cr   W 
     7     6     7    13    19     6     6
Direct configuration=     6
   0.00229539  0.99865289  0.99755430
   0.26871668  0.00216359  0.24462467
   0.24721580  0.49477734  0.24728697
   0.49981519  0.50304870  0.00173192
   0.50549032  0.24451168  0.74391558
   0.99934796  0.50147794  0.50133992
   0.49650723  0.76026371  0.74949746
   0.99125373  0.24115253  0.24975578
   0.75580760  0.74718353  0.00943441
   0.00187234  0.25142721  0.75227069
   0.75206428  0.24680225  0.49665899
   0.99949467  0.75049661  0.75044222
   0.25011041  0.49567016  0.74945870
   0.25903578  0.24338806  0.99075299
   0.50936001  0.25332265  0.25096891
   0.73272215  0.99077847  0.26009479
   0.73943224  0.24132642  0.00287631
   0.24495812  0.74675079  0.99716611
   0.25095632  0.24557564  0.50653429
   0.25138738  0.75241273  0.50224870
   0.24900477  0.24816217  0.24665429
   0.25620072  0.00148706  0.99548049
   0.00003781  0.25253665  0.99996315
   0.74739906  0.24064144  0.24776114
   0.74518841  0.99935568  0.00671549
   0.50882873  0.00027421  0.25691019
   0.99588081  0.49956546  0.24519955
   0.50013294  0.76079839  0.00445441
   0.98844788  0.00409490  0.74384910
   0.75348594  0.24569307  0.75023221
   0.76080693  0.00419630  0.49340589
   0.50245561  0.24586230  0.49178003
   0.51760081  0.00206646  0.74580497
   0.99980532  0.00096266  0.25107871
   0.49892269  0.24293221  0.00082757
   0.25406760  0.74971128  0.24921025
   0.24281460  0.49955721  0.99570215
   0.00248397  0.74429593  0.00364424
   0.74677728  0.74661626  0.25318501
   0.76060910  0.49353030  0.00563665
   0.49872984  0.50147740  0.25075908
   0.25021414  0.24665280  0.74862057
   0.25632100  0.99993110  0.51003151
   0.00327246  0.24815702  0.50045316
   0.24427659  0.75725060  0.75114528
   0.25510449  0.50124757  0.50020951
   0.99950934  0.75661660  0.49982704
   0.00014772  0.50133750  0.75357872
   0.74974704  0.75643929  0.74948099
   0.74706843  0.49585064  0.50626140
   0.49856982  0.76487917  0.48890696
   0.50387872  0.50245317  0.74344116
   0.51701347  0.00979654  0.97426580
   0.99897572  0.51192716  0.98048574
   0.47689589  0.73607793  0.25792872
   0.22643183  0.01332018  0.74383819
   0.47194591  0.99304102  0.51562895
   0.73480299  0.97419399  0.78420763
   0.01686737  0.76637705  0.25437304
   0.73789210  0.49656506  0.25334655
   0.02045550  0.00333868  0.49608163
   0.50449854  0.51851976  0.48861055
   0.75411647  0.51474460  0.76380386
   0.74447035  0.73628208  0.49260490
HECN                                    
           1
     8.793981    0.026102   -0.013699
     0.032585    8.772194    0.005808
     0.017824   -0.009323    8.774077
   Hf   Ta   Ti   N    C    Cr   W 
     7     6     7    13    19     6     6
Direct configuration=     7
   0.00205853  0.99831229  0.99737855
   0.26847945  0.00224294  0.24499399
   0.24702488  0.49485088  0.24689774
   0.49972448  0.50124123  0.00186585
   0.50531002  0.24473212  0.74390401
   0.99920479  0.50168674  0.50111089
   0.49631581  0.76011829  0.74958892
   0.99150311  0.24097047  0.25026868
   0.75535453  0.74715993  0.00983030
   0.00169626  0.25124105  0.75164459
   0.75206276  0.24675812  0.49697127
   0.99944383  0.75056834  0.75012405
   0.25015384  0.49566782  0.74990417
   0.25870320  0.24357961  0.99017737
   0.50964609  0.25343917  0.25093055
   0.73246307  0.99096111  0.26027447
   0.74047893  0.24196172  0.00167056
   0.24539547  0.74708923  0.99685299
   0.25080115  0.24566878  0.50661764
   0.25127231  0.75224187  0.50243349
   0.24912558  0.24807995  0.24697958
   0.25598127  0.00129068  0.99559209
   0.00001167  0.25247960  0.99993289
   0.74669782  0.24060759  0.24730384
   0.74538389  0.99880119  0.00705438
   0.50850394  0.00034067  0.25704520
   0.99581871  0.49946146  0.24538556
   0.49990043  0.76070766  0.00441801
   0.98860190  0.00417051  0.74371818
   0.75373517  0.24570226  0.75013364
   0.76093301  0.00440389  0.49299235
   0.50200370  0.24591836  0.49250232
   0.51728111  0.00219953  0.74576423
   0.99987564  0.00105942  0.25100219
   0.50034409  0.24212299  0.00163732
   0.25412593  0.74975752  0.24915734
   0.24257199  0.49985195  0.99565207
   0.00299129  0.74379901  0.00365111
   0.74695614  0.74662478  0.25298075
   0.76083845  0.49373425  0.00582892
   0.49830191  0.50148791  0.25039424
   0.25039252  0.24666975  0.74869706
   0.25613174  0.99989382  0.50993189
   0.00353328  0.24833686  0.50051544
   0.24436455  0.75732351  0.75102669
   0.25515395  0.50134139  0.50031099
   0.99948165  0.75672577  0.49980664
   0.00012499  0.50135562  0.75328394
   0.74966896  0.75652343  0.74926263
   0.74708595  0.49539333  0.50646243
   0.49838306  0.76516562  0.48891905
   0.50393701  0.50252112  0.74363646
   0.51767435  0.01059593  0.97390808
   0.99892463  0.51234278  0.98048897
   0.47695875  0.73609640  0.25804676
   0.22622449  0.01346857  0.74389999
   0.47216713  0.99304209  0.51586394
   0.73494237  0.97402059  0.78409216
   0.01654647  0.76631318  0.25475340
   0.73804970  0.49674633  0.25344947
   0.02015455  0.00317083  0.49618452
   0.50433939  0.51834106  0.48892032
   0.75410967  0.51507002  0.76368631
   0.74457507  0.73644885  0.49228668
HECN                                    
           1
     8.795396    0.026206   -0.013019
     0.032692    8.773163    0.005753
     0.018507   -0.009382    8.774995
   Hf   Ta   Ti   N    C    Cr   W 
     7     6     7    13    19     6     6
Direct configuration=     8
   0.00201346  0.99824745  0.99734510
   0.26843428  0.00225805  0.24506432
   0.24698857  0.49486488  0.24682366
   0.49970723  0.50089715  0.00189134
   0.50527570  0.24477409  0.74390182
   0.99917756  0.50172649  0.50106730
   0.49627938  0.76009061  0.74960635
   0.99155053  0.24093581  0.25036631
   0.75526827  0.74715545  0.00990570
   0.00166280  0.25120561  0.75152541
   0.75206244  0.24674972  0.49703072
   0.99943417  0.75058200  0.75006349
   0.25016207  0.49566737  0.74998898
   0.25863995  0.24361608  0.99006781
   0.50970054  0.25346134  0.25092323
   0.73241375  0.99099588  0.26030869
   0.74067822  0.24208263  0.00144094
   0.24547873  0.74715365  0.99679334
   0.25077161  0.24568651  0.50663352
   0.25125040  0.75220935  0.50246868
   0.24914855  0.24806430  0.24704150
   0.25593950  0.00125330  0.99561336
   0.00000669  0.25246874  0.99992713
   0.74656440  0.24060115  0.24721684
   0.74542107  0.99869563  0.00711887
   0.50844212  0.00035333  0.25707093
   0.99580688  0.49944167  0.24542097
   0.49985619  0.76069039  0.00441109
   0.98863122  0.00418490  0.74369325
   0.75378261  0.24570401  0.75011486
   0.76095704  0.00444340  0.49291362
   0.50191764  0.24592904  0.49263986
   0.51722027  0.00222486  0.74575651
   0.99988903  0.00107783  0.25098762
   0.50061455  0.24196894  0.00179136
   0.25413703  0.74976632  0.24914727
   0.24252582  0.49990806  0.99564256
   0.00308785  0.74370441  0.00365238
   0.74699019  0.74662640  0.25294186
   0.76088209  0.49377307  0.00586551
   0.49822049  0.50148992  0.25032482
   0.25042647  0.24667298  0.74871161
   0.25609573  0.99988673  0.50991294
   0.00358291  0.24837109  0.50052728
   0.24438130  0.75733739  0.75100411
   0.25516335  0.50135925  0.50033030
   0.99947638  0.75674655  0.49980276
   0.00012069  0.50135906  0.75322783
   0.74965412  0.75653945  0.74922107
   0.74708927  0.49530628  0.50650069
   0.49834751  0.76522016  0.48892137
   0.50394809  0.50253406  0.74367363
   0.51780014  0.01074810  0.97383994
   0.99891490  0.51242191  0.98048960
   0.47697070  0.73609992  0.25806922
   0.22618502  0.01349682  0.74391177
   0.47220921  0.99304229  0.51590865
   0.73496891  0.97398758  0.78407017
   0.01648537  0.76630103  0.25482583
   0.73807968  0.49678084  0.25346905
   0.02009727  0.00313888  0.49620413
   0.50430908  0.51830704  0.48897931
   0.75410839  0.51513197  0.76366393
   0.74459502  0.73648060  0.49222609
HECN                                    
           1
     8.780246    0.025891   -0.012758
     0.032352    8.762798    0.005406
     0.018723   -0.009713    8.765338
   Hf   Ta   Ti   N    C    Cr   W 
     7     6     7    13    19     6     6
Direct configuration=     9
   0.00181725  0.99795048  0.99721304
   0.26827527  0.00237867  0.24528484
   0.24671723  0.49485855  0.24669873
   0.49989517  0.49945905  0.00171149
   0.50531491  0.24485833  0.74391617
   0.99914837  0.50195342  0.50094929
   0.49632251  0.75995174  0.74985147
   0.99143119  0.24077535  0.25077864
   0.75480010  0.74681314  0.01015765
   0.00181526  0.25103490  0.75095495
   0.75208888  0.24678249  0.49742822
   0.99938533  0.75059530  0.74992559
   0.24999898  0.49568056  0.75012208
   0.25849437  0.24365744  0.98969731
   0.51023569  0.25362680  0.25085068
   0.73206971  0.99124758  0.26039682
   0.74139453  0.24269359  0.00050184
   0.24605912  0.74746950  0.99660926
   0.25066498  0.24585635  0.50681528
   0.25119285  0.75206241  0.50256845
   0.24913389  0.24807759  0.24741280
   0.25565470  0.00126809  0.99571288
   0.00017265  0.25217402  0.99985340
   0.74637673  0.24063101  0.24681665
   0.74554566  0.99840282  0.00722138
   0.50818195  0.00049471  0.25728809
   0.99568444  0.49930507  0.24558600
   0.49974206  0.76034846  0.00434566
   0.98863858  0.00417476  0.74361434
   0.75391283  0.24569943  0.74997084
   0.76108634  0.00458495  0.49246702
   0.50155690  0.24610962  0.49323738
   0.51708730  0.00225862  0.74585647
   0.99984324  0.00089428  0.25097498
   0.50155834  0.24125794  0.00231728
   0.25406304  0.74978003  0.24913995
   0.24239208  0.50009244  0.99558361
   0.00321859  0.74332184  0.00364257
   0.74712714  0.74669077  0.25289053
   0.76104969  0.49398274  0.00601217
   0.49810309  0.50145125  0.25053770
   0.25051248  0.24675533  0.74878356
   0.25598761  0.99985186  0.51002928
   0.00368840  0.24853356  0.50047006
   0.24435189  0.75738865  0.75088019
   0.25515770  0.50147081  0.50038111
   0.99936684  0.75677125  0.49983109
   0.00007069  0.50135881  0.75309251
   0.74950665  0.75659559  0.74901825
   0.74692961  0.49517925  0.50668396
   0.49829558  0.76532099  0.48891245
   0.50397412  0.50256599  0.74393411
   0.51883410  0.01137626  0.97346929
   0.99885663  0.51297011  0.98028414
   0.47698125  0.73593653  0.25813163
   0.22602796  0.01361205  0.74386745
   0.47201003  0.99305614  0.51616955
   0.73496031  0.97384468  0.78407895
   0.01638207  0.76648539  0.25499341
   0.73784293  0.49691056  0.25359238
   0.02005291  0.00316174  0.49623038
   0.50421402  0.51823178  0.48882914
   0.75416194  0.51562891  0.76356000
   0.74458368  0.73628741  0.49186372
HECN                                    
           1
     8.786820    0.026028   -0.012871
     0.032499    8.767296    0.005557
     0.018629   -0.009569    8.769529
   Hf   Ta   Ti   N    C    Cr   W 
     7     6     7    13    19     6     6
Direct configuration=    10
   0.00190255  0.99807952  0.99727042
   0.26834440  0.00232626  0.24518903
   0.24683519  0.49486130  0.24675300
   0.49981348  0.50008390  0.00178965
   0.50529787  0.24482172  0.74390994
   0.99916106  0.50185482  0.50100056
   0.49630377  0.76001207  0.74974498
   0.99148308  0.24084507  0.25059950
   0.75500364  0.74696188  0.01004819
   0.00174898  0.25110908  0.75120280
   0.75207739  0.24676824  0.49725552
   0.99940656  0.75058952  0.74998550
   0.25006988  0.49567483  0.75006425
   0.25855765  0.24363947  0.98985828
   0.51000304  0.25355490  0.25088221
   0.73221928  0.99113822  0.26035852
   0.74108310  0.24242814  0.00090984
   0.24580680  0.74733226  0.99668924
   0.25071133  0.24578255  0.50673631
   0.25121787  0.75212626  0.50252511
   0.24914027  0.24807181  0.24725149
   0.25577851  0.00126166  0.99566964
   0.00010051  0.25230207  0.99988544
   0.74645831  0.24061805  0.24699052
   0.74549150  0.99853004  0.00717685
   0.50829505  0.00043328  0.25719374
   0.99573767  0.49936442  0.24551430
   0.49979168  0.76049703  0.00437409
   0.98863538  0.00417917  0.74364862
   0.75385622  0.24570142  0.75003341
   0.76103012  0.00452345  0.49266105
   0.50171373  0.24603115  0.49297777
   0.51714510  0.00224395  0.74581304
   0.99986315  0.00097403  0.25098047
   0.50114806  0.24156685  0.00208881
   0.25409521  0.74977408  0.24914313
   0.24245022  0.50001233  0.99560921
   0.00316176  0.74348806  0.00364684
   0.74706760  0.74666280  0.25291283
   0.76097682  0.49389164  0.00594845
   0.49815414  0.50146805  0.25044521
   0.25047509  0.24671955  0.74875230
   0.25603461  0.99986701  0.50997874
   0.00364254  0.24846297  0.50049491
   0.24436467  0.75736638  0.75093403
   0.25516015  0.50142234  0.50035903
   0.99941446  0.75676052  0.49981878
   0.00009242  0.50135892  0.75315130
   0.74957076  0.75657121  0.74910636
   0.74699903  0.49523444  0.50660434
   0.49831815  0.76527718  0.48891632
   0.50396281  0.50255211  0.74382094
   0.51838459  0.01110332  0.97363033
   0.99888195  0.51273192  0.98037339
   0.47697667  0.73600752  0.25810452
   0.22609624  0.01356199  0.74388670
   0.47209662  0.99305012  0.51605620
   0.73496405  0.97390677  0.78407514
   0.01642698  0.76640528  0.25492060
   0.73794585  0.49685420  0.25353879
   0.02007220  0.00315181  0.49621897
   0.50425534  0.51826449  0.48889438
   0.75413865  0.51541299  0.76360515
   0.74458860  0.73637136  0.49202116
HECN                                    
           1
     8.786131    0.025443   -0.014537
     0.031903    8.770554    0.005446
     0.016971   -0.009681    8.772850
   Hf   Ta   Ti   N    C    Cr   W 
     7     6     7    13    19     6     6
Direct configuration=    11
   0.00179549  0.99792274  0.99722370
   0.26828597  0.00246016  0.24520453
   0.24665271  0.49477848  0.24678664
   0.50002131  0.49958283  0.00163415
   0.50542177  0.24480925  0.74396465
   0.99918268  0.50196026  0.50098497
   0.49638315  0.75990024  0.74993387
   0.99125121  0.24079281  0.25069509
   0.75471062  0.74663637  0.01009556
   0.00199266  0.25097539  0.75096764
   0.75205293  0.24683812  0.49755495
   0.99936488  0.75062481  0.75006376
   0.24991702  0.49574741  0.74997878
   0.25843288  0.24349902  0.98986849
   0.51027628  0.25361349  0.25096876
   0.73205967  0.99133965  0.26030322
   0.74156237  0.24270083  0.00045641
   0.24625903  0.74750969  0.99669924
   0.25074407  0.24593816  0.50684158
   0.25121203  0.75206522  0.50251290
   0.24906005  0.24814494  0.24746035
   0.25567884  0.00140901  0.99568519
   0.00034478  0.25205311  0.99982248
   0.74671064  0.24068291  0.24683613
   0.74553403  0.99859292  0.00710851
   0.50822833  0.00054720  0.25736923
   0.99559459  0.49927141  0.24551523
   0.49978993  0.76019839  0.00438310
   0.98847247  0.00411043  0.74361934
   0.75387515  0.24566595  0.74994131
   0.76104357  0.00451171  0.49246178
   0.50156851  0.24619979  0.49310957
   0.51712574  0.00219403  0.74591159
   0.99970328  0.00080744  0.25098077
   0.50129707  0.24127796  0.00213465
   0.25401823  0.74976170  0.24916008
   0.24243745  0.50002619  0.99558434
   0.00303192  0.74340477  0.00365709
   0.74705834  0.74675249  0.25295242
   0.76106746  0.49392319  0.00600800
   0.49812694  0.50138016  0.25065010
   0.25051535  0.24678410  0.74877941
   0.25604917  0.99985519  0.51016602
   0.00362095  0.24856607  0.50038389
   0.24431543  0.75741592  0.75088541
   0.25510299  0.50149053  0.50033259
   0.99931987  0.75676400  0.49984284
   0.00004526  0.50132880  0.75316814
   0.74948657  0.75661370  0.74901822
   0.74685131  0.49532645  0.50671182
   0.49834338  0.76525899  0.48892971
   0.50395136  0.50253244  0.74394257
   0.51904893  0.01126204  0.97352900
   0.99885864  0.51305241  0.98019345
   0.47701608  0.73586440  0.25802562
   0.22611767  0.01359220  0.74386373
   0.47187347  0.99311982  0.51621263
   0.73498167  0.97393606  0.78407267
   0.01644092  0.76649341  0.25484382
   0.73777345  0.49683068  0.25366723
   0.02008596  0.00325200  0.49622705
   0.50416745  0.51821125  0.48876961
   0.75418048  0.51564262  0.76350280
   0.74450800  0.73619602  0.49184175
HECN                                    
           1
     8.785937    0.025278   -0.015005
     0.031735    8.771471    0.005415
     0.016505   -0.009712    8.773785
   Hf   Ta   Ti   N    C    Cr   W 