  64  64   0   0
  0.2218804E+02  0.1124000E-08  0.1124000E-08  0.1124000E-08  0.5000000E-15
  1.000000000000000E-004
  CAR 
 HECN                                    
     13.50743256    -60.41279553  301      7.86571254      1.00000000
    -60.413  0.0000E+00  0.0000E+00
    -60.166  0.0000E+00  0.0000E+00
    -59.920  0.0000E+00  0.0000E+00
    -59.674  0.0000E+00  0.0000E+00
    -59.427  0.0000E+00  0.0000E+00
    -59.181  0.0000E+00  0.0000E+00
    -58.934  0.0000E+00  0.0000E+00
    -58.688  0.0000E+00  0.0000E+00
    -58.442  0.0000E+00  0.0000E+00
    -58.195  0.0000E+00  0.0000E+00
    -57.949  0.0000E+00  0.0000E+00
    -57.702  0.0000E+00  0.0000E+00
    -57.456  0.5237E-09  0.1290E-09
    -57.210  0.1511E-02  0.3723E-03
    -56.963  0.2544E+00  0.6305E-01
    -56.717  0.2281E+00  0.1193E+00
    -56.470  0.3034E-02  0.1200E+00
    -56.224  0.4895E-08  0.1200E+00
    -55.978  0.0000E+00  0.1200E+00
    -55.731  0.0000E+00  0.1200E+00
    -55.485  0.0000E+00  0.1200E+00
    -55.238  0.0000E+00  0.1200E+00
    -54.992  0.0000E+00  0.1200E+00
    -54.746  0.0000E+00  0.1200E+00
    -54.499  0.0000E+00  0.1200E+00
    -54.253  0.0000E+00  0.1200E+00
    -54.006  0.0000E+00  0.1200E+00
    -53.760  0.0000E+00  0.1200E+00
    -53.514  0.0000E+00  0.1200E+00
    -53.267  0.0000E+00  0.1200E+00
    -53.021  0.0000E+00  0.1200E+00
    -52.774  0.0000E+00  0.1200E+00
    -52.528  0.0000E+00  0.1200E+00
    -52.282  0.0000E+00  0.1200E+00
    -52.035  0.0000E+00  0.1200E+00
    -51.789  0.0000E+00  0.1200E+00
    -51.542  0.0000E+00  0.1200E+00
    -51.296  0.0000E+00  0.1200E+00
    -51.050  0.0000E+00  0.1200E+00
    -50.803  0.0000E+00  0.1200E+00
    -50.557  0.0000E+00  0.1200E+00
    -50.310  0.1539E-13  0.1200E+00
    -50.064  0.6411E-05  0.1200E+00
    -49.818  0.3125E-01  0.1277E+00
    -49.571  0.1617E+00  0.1675E+00
    -49.325  0.3212E+00  0.2467E+00
    -49.078  0.5400E-01  0.2600E+00
    -48.832  0.5294E-04  0.2600E+00
    -48.586  0.8478E-12  0.2600E+00
    -48.339  0.0000E+00  0.2600E+00
    -48.093  0.0000E+00  0.2600E+00
    -47.846  0.0000E+00  0.2600E+00
    -47.600  0.0000E+00  0.2600E+00
    -47.354  0.0000E+00  0.2600E+00
    -47.107  0.0000E+00  0.2600E+00
    -46.861  0.0000E+00  0.2600E+00
    -46.614  0.0000E+00  0.2600E+00
    -46.368  0.0000E+00  0.2600E+00
    -46.122  0.0000E+00  0.2600E+00
    -45.875  0.0000E+00  0.2600E+00
    -45.629  0.0000E+00  0.2600E+00
    -45.382  0.0000E+00  0.2600E+00
    -45.136  0.0000E+00  0.2600E+00
    -44.890  0.0000E+00  0.2600E+00
    -44.643  0.0000E+00  0.2600E+00
    -44.397  0.0000E+00  0.2600E+00
    -44.150  0.0000E+00  0.2600E+00
    -43.904  0.0000E+00  0.2600E+00
    -43.658  0.0000E+00  0.2600E+00
    -43.411  0.0000E+00  0.2600E+00
    -43.165  0.0000E+00  0.2600E+00
    -42.918  0.0000E+00  0.2600E+00
    -42.672  0.0000E+00  0.2600E+00
    -42.426  0.0000E+00  0.2600E+00
    -42.179  0.0000E+00  0.2600E+00
    -41.933  0.0000E+00  0.2600E+00
    -41.686  0.0000E+00  0.2600E+00
    -41.440  0.0000E+00  0.2600E+00
    -41.194  0.0000E+00  0.2600E+00
    -40.947  0.0000E+00  0.2600E+00
    -40.701  0.0000E+00  0.2600E+00
    -40.454  0.0000E+00  0.2600E+00
    -40.208  0.0000E+00  0.2600E+00
    -39.962  0.0000E+00  0.2600E+00
    -39.715  0.0000E+00  0.2600E+00
    -39.469  0.0000E+00  0.2600E+00
    -39.222  0.0000E+00  0.2600E+00
    -38.976  0.0000E+00  0.2600E+00
    -38.730  0.0000E+00  0.2600E+00
    -38.483  0.0000E+00  0.2600E+00
    -38.237  0.0000E+00  0.2600E+00
    -37.990  0.0000E+00  0.2600E+00
    -37.744  0.0000E+00  0.2600E+00
    -37.498  0.0000E+00  0.2600E+00
    -37.251  0.0000E+00  0.2600E+00
    -37.005  0.0000E+00  0.2600E+00
    -36.758  0.0000E+00  0.2600E+00
    -36.512  0.0000E+00  0.2600E+00
    -36.266  0.0000E+00  0.2600E+00
    -36.019  0.0000E+00  0.2600E+00
    -35.773  0.0000E+00  0.2600E+00
    -35.526  0.0000E+00  0.2600E+00
    -35.280  0.0000E+00  0.2600E+00
    -35.034  0.0000E+00  0.2600E+00
    -34.787  0.0000E+00  0.2600E+00
    -34.541  0.0000E+00  0.2600E+00
    -34.294  0.0000E+00  0.2600E+00
    -34.048  0.0000E+00  0.2600E+00
    -33.802  0.0000E+00  0.2600E+00
    -33.555  0.0000E+00  0.2600E+00
    -33.309  0.0000E+00  0.2600E+00
    -33.062  0.0000E+00  0.2600E+00
    -32.816  0.0000E+00  0.2600E+00
    -32.570  0.0000E+00  0.2600E+00
    -32.323  0.0000E+00  0.2600E+00
    -32.077  0.0000E+00  0.2600E+00
    -31.830  0.0000E+00  0.2600E+00
    -31.584  0.1529E-13  0.2600E+00
    -31.338  0.9500E-05  0.2600E+00
    -31.091  0.1107E+00  0.2873E+00
    -30.845  0.9074E+00  0.5109E+00
    -30.598  0.4392E+00  0.6191E+00
    -30.352  0.3723E-02  0.6200E+00
    -30.106  0.3051E-08  0.6200E+00
    -29.859  0.0000E+00  0.6200E+00
    -29.613  0.0000E+00  0.6200E+00
    -29.366  0.0000E+00  0.6200E+00
    -29.120  0.0000E+00  0.6200E+00
    -28.873  0.0000E+00  0.6200E+00
    -28.627  0.0000E+00  0.6200E+00
    -28.381  0.0000E+00  0.6200E+00
    -28.134  0.4273E-10  0.6200E+00
    -27.888  0.3814E-03  0.6201E+00
    -27.641  0.1320E+00  0.6526E+00
    -27.395  0.5293E+00  0.7830E+00
    -27.149  0.5342E+00  0.9147E+00
    -26.902  0.2501E+00  0.9763E+00
    -26.656  0.1506E-01  0.9800E+00
    -26.409  0.8152E-03  0.9802E+00
    -26.163  0.1346E+00  0.1013E+01
    -25.917  0.6012E+00  0.1161E+01
    -25.670  0.8140E+00  0.1362E+01
    -25.424  0.1537E+00  0.1400E+01
    -25.177  0.2336E-03  0.1400E+01
    -24.931  0.1194E-10  0.1400E+01
    -24.685  0.0000E+00  0.1400E+01
    -24.438  0.0000E+00  0.1400E+01
    -24.192  0.0000E+00  0.1400E+01
    -23.945  0.0000E+00  0.1400E+01
    -23.699  0.4583E-10  0.1400E+01
    -23.453  0.3733E-03  0.1400E+01
    -23.206  0.1024E+00  0.1425E+01
    -22.960  0.3975E+00  0.1523E+01
    -22.713  0.2550E+00  0.1586E+01
    -22.467  0.5135E+00  0.1713E+01
    -22.221  0.2077E+00  0.1764E+01
    -21.974  0.2209E+00  0.1818E+01
    -21.728  0.7287E-02  0.1820E+01
    -21.481  0.1336E-07  0.1820E+01
    -21.235  0.0000E+00  0.1820E+01
    -20.989  0.0000E+00  0.1820E+01
    -20.742  0.0000E+00  0.1820E+01
    -20.496  0.0000E+00  0.1820E+01
    -20.249  0.0000E+00  0.1820E+01
    -20.003  0.0000E+00  0.1820E+01
    -19.757  0.0000E+00  0.1820E+01
    -19.510  0.0000E+00  0.1820E+01
    -19.264  0.0000E+00  0.1820E+01
    -19.017  0.0000E+00  0.1820E+01
    -18.771  0.0000E+00  0.1820E+01
    -18.525  0.0000E+00  0.1820E+01
    -18.278  0.0000E+00  0.1820E+01
    -18.032  0.0000E+00  0.1820E+01
    -17.785  0.0000E+00  0.1820E+01
    -17.539  0.0000E+00  0.1820E+01
    -17.293  0.0000E+00  0.1820E+01
    -17.046  0.0000E+00  0.1820E+01
    -16.800  0.0000E+00  0.1820E+01
    -16.553  0.0000E+00  0.1820E+01
    -16.307  0.0000E+00  0.1820E+01
    -16.061  0.0000E+00  0.1820E+01
    -15.814  0.0000E+00  0.1820E+01
    -15.568  0.0000E+00  0.1820E+01
    -15.321  0.0000E+00  0.1820E+01
    -15.075  0.0000E+00  0.1820E+01
    -14.829  0.0000E+00  0.1820E+01
    -14.582  0.0000E+00  0.1820E+01
    -14.336  0.0000E+00  0.1820E+01
    -14.089  0.0000E+00  0.1820E+01
    -13.843  0.0000E+00  0.1820E+01
    -13.597  0.0000E+00  0.1820E+01
    -13.350  0.0000E+00  0.1820E+01
    -13.104  0.0000E+00  0.1820E+01
    -12.857  0.0000E+00  0.1820E+01
    -12.611  0.0000E+00  0.1820E+01
    -12.365  0.0000E+00  0.1820E+01
    -12.118  0.0000E+00  0.1820E+01
    -11.872  0.0000E+00  0.1820E+01
    -11.625  0.0000E+00  0.1820E+01
    -11.379  0.0000E+00  0.1820E+01
    -11.133  0.0000E+00  0.1820E+01
    -10.886  0.0000E+00  0.1820E+01
    -10.640  0.0000E+00  0.1820E+01
    -10.393  0.0000E+00  0.1820E+01
    -10.147  0.0000E+00  0.1820E+01
     -9.901  0.0000E+00  0.1820E+01
     -9.654  0.0000E+00  0.1820E+01
     -9.408  0.0000E+00  0.1820E+01
     -9.161  0.2169E-17  0.1820E+01
     -8.915  0.1305E-07  0.1820E+01
     -8.669  0.1012E-02  0.1820E+01
     -8.422  0.4012E-01  0.1830E+01
     -8.176  0.7298E-01  0.1848E+01
     -7.929  0.9436E-01  0.1871E+01
     -7.683  0.1002E+00  0.1896E+01
     -7.437  0.1713E+00  0.1938E+01
     -7.190  0.2840E+00  0.2008E+01
     -6.944  0.1234E+00  0.2039E+01
     -6.697  0.8800E-01  0.2060E+01
     -6.451  0.7960E-01  0.2080E+01
     -6.205  0.1093E-03  0.2080E+01
     -5.958  0.6836E-11  0.2080E+01
     -5.712  0.0000E+00  0.2080E+01
     -5.465  0.3338E-18  0.2080E+01
     -5.219  0.4287E-08  0.2080E+01
     -4.973  0.7368E-03  0.2080E+01
     -4.726  0.4300E-01  0.2091E+01
     -4.480  0.3997E-01  0.2101E+01
     -4.233  0.6910E-01  0.2118E+01
     -3.987  0.9685E-01  0.2142E+01
     -3.741  0.1148E+00  0.2170E+01
     -3.494  0.2294E+00  0.2226E+01
     -3.248  0.2545E+00  0.2289E+01
     -3.001  0.2463E+00  0.2350E+01
     -2.755  0.2034E+00  0.2400E+01
     -2.509  0.1513E+00  0.2437E+01
     -2.262  0.8538E-01  0.2458E+01
     -2.016  0.7538E-02  0.2460E+01
     -1.769  0.8707E-05  0.2460E+01
     -1.523  0.5535E-12  0.2460E+01
     -1.277  0.0000E+00  0.2460E+01
     -1.030  0.0000E+00  0.2460E+01
     -0.784  0.0000E+00  0.2460E+01
     -0.537  0.1264E-09  0.2460E+01
     -0.291  0.1082E-03  0.2460E+01
     -0.045  0.7951E-02  0.2462E+01
      0.202  0.3357E-01  0.2470E+01
      0.448  0.1070E+00  0.2497E+01
      0.695  0.1225E+00  0.2527E+01
      0.941  0.1657E+00  0.2568E+01
      1.187  0.2157E+00  0.2621E+01
      1.434  0.2858E+00  0.2691E+01
      1.680  0.2638E+00  0.2756E+01
      1.927  0.2961E+00  0.2829E+01
      2.173  0.3420E+00  0.2913E+01
      2.419  0.3378E+00  0.2997E+01
      2.666  0.4339E+00  0.3104E+01
      2.912  0.4806E+00  0.3222E+01
      3.159  0.5414E+00  0.3355E+01
      3.405  0.5816E+00  0.3499E+01
      3.651  0.5725E+00  0.3640E+01
      3.898  0.5708E+00  0.3780E+01
      4.144  0.5484E+00  0.3916E+01
      4.391  0.4723E+00  0.4032E+01
      4.637  0.3746E+00  0.4124E+01
      4.883  0.2998E+00  0.4198E+01
      5.130  0.2893E+00  0.4269E+01
      5.376  0.1651E+00  0.4310E+01
      5.623  0.1779E+00  0.4354E+01
      5.869  0.1069E+00  0.4380E+01
      6.115  0.1163E+00  0.4409E+01
      6.362  0.1525E+00  0.4447E+01
      6.608  0.1525E+00  0.4484E+01
      6.855  0.1893E+00  0.4531E+01
      7.101  0.2112E+00  0.4583E+01
      7.347  0.1876E+00  0.4629E+01
      7.594  0.2219E+00  0.4684E+01
      7.840  0.2450E+00  0.4744E+01
      8.087  0.2174E+00  0.4798E+01
      8.333  0.3253E+00  0.4878E+01
      8.579  0.3773E+00  0.4971E+01
      8.826  0.4804E+00  0.5089E+01
      9.072  0.4808E+00  0.5208E+01
      9.319  0.5126E+00  0.5334E+01
      9.565  0.5331E+00  0.5465E+01
      9.811  0.5401E+00  0.5598E+01
     10.058  0.5322E+00  0.5729E+01
     10.304  0.1237E+00  0.5760E+01
     10.551  0.2547E-03  0.5760E+01
     10.797  0.5492E-10  0.5760E+01
     11.043  0.0000E+00  0.5760E+01
     11.290  0.0000E+00  0.5760E+01
     11.536  0.0000E+00  0.5760E+01
     11.783  0.0000E+00  0.5760E+01
     12.029  0.0000E+00  0.5760E+01
     12.275  0.0000E+00  0.5760E+01
     12.522  0.0000E+00  0.5760E+01
     12.768  0.0000E+00  0.5760E+01
     13.015  0.0000E+00  0.5760E+01
     13.261  0.0000E+00  0.5760E+01
     13.507  0.0000E+00  0.5760E+01
