 running on   24 total cores
 distrk:  each k-point on   24 cores,    1 groups
 distr:  one band on    1 cores,   24 groups
 using from now: INCAR     
 vasp.5.4.4.18Apr17-6-g9f103f2a35 (build Oct 18 2021 20:38:43) complex          
  
 POSCAR found type information on POSCAR  Ti Ta Hf N  C  Mo V 
 POSCAR found :  7 types and      64 ions
 scaLAPACK will be used

 ----------------------------------------------------------------------------- 
|                                                                             |
|           W    W    AA    RRRRR   N    N  II  N    N   GGGG   !!!           |
|           W    W   A  A   R    R  NN   N  II  NN   N  G    G  !!!           |
|           W    W  A    A  R    R  N N  N  II  N N  N  G       !!!           |
|           W WW W  AAAAAA  RRRRR   N  N N  II  N  N N  G  GGG   !            |
|           WW  WW  A    A  R   R   N   NN  II  N   NN  G    G                |
|           W    W  A    A  R    R  N    N  II  N    N   GGGG   !!!           |
|                                                                             |
|      For optimal performance we recommend to set                            |
|        NCORE= 4 - approx SQRT( number of cores)                             |
|      NCORE specifies how many cores store one orbital (NPAR=cpu/NCORE).     |
|      This setting can  greatly improve the performance of VASP for DFT.     |
|      The default,   NCORE=1            might be grossly inefficient         |
|      on modern multi-core architectures or massively parallel machines.     |
|      Do your own testing !!!!                                               |
|      Unfortunately you need to use the default for GW and RPA calculations. |
|      (for HF NCORE is supported but not extensively tested yet)             |
|                                                                             |
 ----------------------------------------------------------------------------- 


 ----------------------------------------------------------------------------- 
|                                                                             |
|  ADVICE TO THIS USER RUNNING 'VASP/VAMP'   (HEAR YOUR MASTER'S VOICE ...):  |
|                                                                             |
|      You have a (more or less) 'large supercell' and for larger cells       |
|      it might be more efficient to use real space projection operators      |
|      So try LREAL= Auto  in the INCAR   file.                               |
|      Mind: If you want to do a very accurate calculations keep the          |
|      reciprocal projection scheme          (i.e. LREAL=.FALSE.)             |
|                                                                             |
 ----------------------------------------------------------------------------- 

 LDA part: xc-table for Pade appr. of Perdew
 POSCAR, INCAR and KPOINTS ok, starting setup
 FFT: planning ...
 WAVECAR not read
 entering main loop
       N       E                     dE             d eps       ncg     rms          rms(c)
DAV:   1     0.409264314178E+04    0.40926E+04   -0.20589E+05  9384   0.128E+03
DAV:   2     0.126139431531E+03   -0.39665E+04   -0.38852E+04  8424   0.425E+02
DAV:   3    -0.549313444453E+03   -0.67545E+03   -0.64748E+03 12456   0.126E+02
DAV:   4    -0.632131239795E+03   -0.82818E+02   -0.80165E+02 12720   0.488E+01
DAV:   5    -0.640156198575E+03   -0.80250E+01   -0.77212E+01 13440   0.140E+01    0.760E+01
RMM:   6    -0.702796635855E+03   -0.62640E+02   -0.31709E+03 11557   0.876E+01    0.102E+02
RMM:   7    -0.528021299553E+03    0.17478E+03   -0.86855E+02 11927   0.376E+01    0.567E+01
RMM:   8    -0.478461548325E+03    0.49560E+02   -0.10687E+02 10257   0.244E+01    0.423E+01
RMM:   9    -0.467644233011E+03    0.10817E+02   -0.49456E+01 12193   0.702E+00    0.231E+01
RMM:  10    -0.469176649205E+03   -0.15324E+01   -0.21356E+01 11920   0.539E+00    0.339E+01
RMM:  11    -0.465553228370E+03    0.36234E+01   -0.12631E+01 12007   0.438E+00    0.297E+01
RMM:  12    -0.464408297164E+03    0.11449E+01   -0.85010E+00 12165   0.377E+00    0.266E+01
RMM:  13    -0.463406772072E+03    0.10015E+01   -0.10730E+01 11933   0.393E+00    0.223E+01
RMM:  14    -0.464841706729E+03   -0.14349E+01   -0.99545E+00 12043   0.387E+00    0.256E+01
RMM:  15    -0.463534340871E+03    0.13074E+01   -0.65023E+00 12015   0.297E+00    0.188E+01
RMM:  16    -0.462452780577E+03    0.10816E+01   -0.25513E+00 11981   0.186E+00    0.150E+01
RMM:  17    -0.462144226623E+03    0.30855E+00   -0.16393E+00 11952   0.147E+00    0.155E+01
RMM:  18    -0.460904753645E+03    0.12395E+01   -0.22605E+00 11971   0.188E+00    0.695E+00
RMM:  19    -0.461018996240E+03   -0.11424E+00   -0.18763E+00 12241   0.144E+00    0.103E+01
RMM:  20    -0.460870280929E+03    0.14872E+00   -0.11931E+00 12433   0.962E-01    0.614E+00
RMM:  21    -0.460837771963E+03    0.32509E-01   -0.55727E-01 12242   0.708E-01    0.456E+00
RMM:  22    -0.460793364638E+03    0.44407E-01   -0.28902E-01 12082   0.659E-01    0.331E+00
RMM:  23    -0.460774218435E+03    0.19146E-01   -0.19793E-01 12104   0.520E-01    0.280E+00
RMM:  24    -0.460754150452E+03    0.20068E-01   -0.14379E-01 12431   0.344E-01    0.158E+00
RMM:  25    -0.460754034188E+03    0.11626E-03   -0.13416E-01 12113   0.370E-01    0.156E+00
RMM:  26    -0.460762456666E+03   -0.84225E-02   -0.83187E-02 12320   0.287E-01    0.159E+00
RMM:  27    -0.460761504779E+03    0.95189E-03   -0.64263E-02 12232   0.200E-01    0.921E-01
RMM:  28    -0.460758509397E+03    0.29954E-02   -0.42775E-02 11988   0.172E-01    0.412E-01
RMM:  29    -0.460760285518E+03   -0.17761E-02   -0.30567E-02 11813   0.115E-01    0.311E-01
RMM:  30    -0.460762406942E+03   -0.21214E-02   -0.21796E-02 11245   0.675E-02    0.357E-01
RMM:  31    -0.460763243279E+03   -0.83634E-03   -0.16048E-02 11411   0.665E-02    0.155E-01
RMM:  32    -0.460764428203E+03   -0.11849E-02   -0.12099E-02 11686   0.661E-02    0.274E-01
RMM:  33    -0.460765111350E+03   -0.68315E-03   -0.93322E-03 11230   0.499E-02    0.122E-01
RMM:  34    -0.460765715632E+03   -0.60428E-03   -0.67400E-03 10565   0.360E-02    0.105E-01
RMM:  35    -0.460766098253E+03   -0.38262E-03   -0.48147E-03 10751   0.284E-02    0.112E-01
RMM:  36    -0.460766468295E+03   -0.37004E-03   -0.42057E-03 10549   0.245E-02    0.807E-02
RMM:  37    -0.460766749846E+03   -0.28155E-03   -0.31316E-03 10141   0.216E-02    0.488E-02
RMM:  38    -0.460766981234E+03   -0.23139E-03   -0.24584E-03  9413   0.172E-02    0.320E-02
RMM:  39    -0.460767168734E+03   -0.18750E-03   -0.19299E-03  7472   0.146E-02    0.184E-02
RMM:  40    -0.460767314378E+03   -0.14564E-03   -0.15153E-03  6111   0.120E-02    0.151E-02
RMM:  41    -0.460767432654E+03   -0.11828E-03   -0.12106E-03  5871   0.105E-02    0.907E-03
RMM:  42    -0.460767526401E+03   -0.93747E-04   -0.95040E-04  5443   0.102E-02    0.452E-03
RMM:  43    -0.460767604694E+03   -0.78294E-04   -0.78648E-04  5038   0.844E-03    0.227E-03
RMM:  44    -0.460767664288E+03   -0.59594E-04   -0.59986E-04  4896   0.721E-03    0.178E-03
RMM:  45    -0.460767718463E+03   -0.54175E-04   -0.54453E-04  4647   0.618E-03    0.126E-03
RMM:  46    -0.460767757992E+03   -0.39529E-04   -0.40191E-04  4311   0.536E-03    0.151E-03
RMM:  47    -0.460767791865E+03   -0.33873E-04   -0.34231E-04  4255   0.511E-03    0.128E-03
RMM:  48    -0.460767817577E+03   -0.25712E-04   -0.26063E-04  4089   0.460E-03    0.336E-03
RMM:  49    -0.460767840278E+03   -0.22701E-04   -0.22982E-04  3841   0.423E-03    0.358E-03
RMM:  50    -0.460767857282E+03   -0.17004E-04   -0.17415E-04  3923   0.405E-03    0.324E-03
RMM:  51    -0.460767871401E+03   -0.14119E-04   -0.14391E-04  4000   0.401E-03    0.257E-03
RMM:  52    -0.460767883604E+03   -0.12203E-04   -0.12427E-04  3786   0.370E-03    0.298E-03
RMM:  53    -0.460767893218E+03   -0.96135E-05   -0.98397E-05  3605   0.356E-03
   1 F= -.46076789E+03 E0= -.46047077E+03  d E =-.460768E+03
 curvature:   0.00 expect dE= 0.000E+00 dE for cont linesearch  0.000E+00
 trial: gam= 0.00000 g(F)=  0.921E+00 g(S)=  0.310E+03 ort = 0.000E+00 (trialstep = 0.100E+01)
 search vector abs. value=  0.311E+03
 bond charge predicted
       N       E                     dE             d eps       ncg     rms          rms(c)
DAV:   1    -0.345188108655E+04   -0.29911E+04   -0.82848E+04  8088   0.944E+02    0.356E+02
RMM:   2    -0.134673533130E+04    0.21051E+04   -0.82317E+03 12182   0.259E+02    0.167E+02
RMM:   3    -0.648448985658E+03    0.69829E+03   -0.17567E+03  8535   0.140E+02    0.580E+01
RMM:   4    -0.621452973845E+03    0.26996E+02   -0.51204E+02 10031   0.546E+01    0.347E+01
RMM:   5    -0.613033404552E+03    0.84196E+01   -0.13463E+02 11981   0.294E+01    0.254E+01
RMM:   6    -0.602078043080E+03    0.10955E+02   -0.42260E+01 12170   0.155E+01    0.119E+01
RMM:   7    -0.604164819594E+03   -0.20868E+01   -0.17775E+01 13715   0.902E+00    0.150E+01
RMM:   8    -0.603351161540E+03    0.81366E+00   -0.86115E+00 13839   0.554E+00    0.844E+00
RMM:   9    -0.604104119314E+03   -0.75296E+00   -0.39620E+00 13576   0.390E+00    0.668E+00
RMM:  10    -0.604984517193E+03   -0.88040E+00   -0.39686E+00 13155   0.427E+00    0.722E+00
RMM:  11    -0.605112809015E+03   -0.12829E+00   -0.22763E+00 13758   0.294E+00    0.381E+00
RMM:  12    -0.605066418072E+03    0.46391E-01   -0.12351E+00 13035   0.243E+00    0.203E+00
RMM:  13    -0.605075545878E+03   -0.91278E-02   -0.44748E-01 13677   0.136E+00    0.140E+00
RMM:  14    -0.605076535801E+03   -0.98992E-03   -0.17729E-01 13570   0.756E-01    0.788E-01
RMM:  15    -0.605079757716E+03   -0.32219E-02   -0.73663E-02 13647   0.567E-01    0.570E-01
RMM:  16    -0.605078224848E+03    0.15329E-02   -0.30089E-02 13675   0.364E-01    0.279E-01
RMM:  17    -0.605078092336E+03    0.13251E-03   -0.12710E-02 13461   0.235E-01    0.190E-01
RMM:  18    -0.605078178672E+03   -0.86336E-04   -0.51041E-03 13459   0.136E-01    0.136E-01
RMM:  19    -0.605078071159E+03    0.10751E-03   -0.20821E-03 13398   0.101E-01    0.538E-02
WARNING in EDDRMM: call to ZHEGV failed, returncode =   6  3      8
RMM:  20    -0.605078124707E+03   -0.53548E-04   -0.10370E-03 12926   0.635E-02    0.489E-02
RMM:  21    -0.605078126053E+03   -0.13461E-05   -0.42472E-04 12424   0.477E-02    0.182E-02
WARNING in EDDRMM: call to ZHEGV failed, returncode =   8  4      9
WARNING in EDDRMM: call to ZHEGV failed, returncode =   6  3      6
RMM:  22    -0.605078140539E+03   -0.14486E-04   -0.21891E-04 11547   0.287E-02    0.154E-02
RMM:  23    -0.605078142867E+03   -0.23282E-05   -0.99908E-05  9713   0.225E-02
   2 F= -.60507814E+03 E0= -.60501180E+03  d E =-.144310E+03
 trial-energy change: -144.310250  1 .order   12.488289 -310.974649  335.951226
 step:   0.7519(harm=  0.4807)  dis= 0.02983  next Energy=  -644.351866 (dE=-0.184E+03)
 bond charge predicted
       N       E                     dE             d eps       ncg     rms          rms(c)
DAV:   1    -0.102982857243E+04   -0.42475E+03   -0.66905E+03  9456   0.281E+02    0.191E+02
RMM:   2    -0.146222755258E+04   -0.43240E+03   -0.39283E+03 10073   0.148E+02    0.107E+02
RMM:   3    -0.889492453562E+03    0.57274E+03   -0.95210E+02 11559   0.570E+01    0.718E+01
RMM:   4    -0.676552576502E+03    0.21294E+03   -0.29622E+02 10510   0.428E+01    0.371E+01
RMM:   5    -0.666199244833E+03    0.10353E+02   -0.27385E+02 12076   0.277E+01    0.268E+01
RMM:   6    -0.654163744298E+03    0.12036E+02   -0.59028E+01 12247   0.120E+01    0.142E+01
RMM:   7    -0.657741980390E+03   -0.35782E+01   -0.22219E+01 12290   0.872E+00    0.299E+01
RMM:   8    -0.650948297031E+03    0.67937E+01   -0.11233E+01 11590   0.696E+00    0.133E+01
RMM:   9    -0.652140413062E+03   -0.11921E+01   -0.17932E+01 12158   0.686E+00    0.137E+01
RMM:  10    -0.650746913616E+03    0.13935E+01   -0.18880E+00 11902   0.285E+00    0.971E+00
RMM:  11    -0.650536037861E+03    0.21088E+00   -0.10365E+00 12247   0.173E+00    0.935E+00
RMM:  12    -0.649849957939E+03    0.68608E+00   -0.61608E-01 11521   0.173E+00    0.570E+00
RMM:  13    -0.649553050651E+03    0.29691E+00   -0.12517E+00 12001   0.188E+00    0.201E+00
RMM:  14    -0.649589441622E+03   -0.36391E-01   -0.66747E-01 12139   0.122E+00    0.216E+00
RMM:  15    -0.649563242148E+03    0.26199E-01   -0.89893E-02 11140   0.683E-01    0.119E+00
RMM:  16    -0.649578548135E+03   -0.15306E-01   -0.94155E-02 12399   0.462E-01    0.979E-01
RMM:  17    -0.649578497901E+03    0.50234E-04   -0.41523E-02 12309   0.403E-01    0.963E-01
RMM:  18    -0.649580934770E+03   -0.24369E-02   -0.21006E-02 12371   0.227E-01    0.116E+00
RMM:  19    -0.649568998057E+03    0.11937E-01   -0.51148E-02 11683   0.418E-01    0.316E-01
RMM:  20    -0.649572388482E+03   -0.33904E-02   -0.24464E-02 12305   0.220E-01    0.591E-01
RMM:  21    -0.649571046735E+03    0.13417E-02   -0.33540E-03 10615   0.118E-01    0.503E-01
RMM:  22    -0.649568862727E+03    0.21840E-02   -0.34147E-03 11548   0.112E-01    0.231E-01
WARNING in EDDRMM: call to ZHEGV failed, returncode =   6  3      5
RMM:  23    -0.649568557219E+03    0.30551E-03   -0.40224E-03 11604   0.969E-02    0.665E-02
WARNING in EDDRMM: call to ZHEGV failed, returncode =   6  3      5
RMM:  24    -0.649568581473E+03   -0.24254E-04   -0.83265E-04 10658   0.584E-02    0.754E-02
WARNING in EDDRMM: call to ZHEGV failed, returncode =   6  3      8
RMM:  25    -0.649568539869E+03    0.41604E-04   -0.21287E-04  9941   0.230E-02    0.673E-02
WARNING in EDDRMM: call to ZHEGV failed, returncode =   6  3      5
RMM:  26    -0.649568488026E+03    0.51843E-04   -0.15469E-04 10043   0.249E-02    0.258E-02
RMM:  27    -0.649568485950E+03    0.20753E-05   -0.81674E-05  9203   0.147E-02
   3 F= -.64956849E+03 E0= -.64947781E+03  d E =-.188801E+03
 curvature:  -0.17 expect dE=-0.900E+00 dE for cont linesearch -0.495E+00
 ZBRENT: interpolating
 opt :   0.7721  next Energy=  -649.867201 (dE=-0.189E+03)
 bond charge predicted
       N       E                     dE             d eps       ncg     rms          rms(c)
DAV:   1    -0.651894863892E+03   -0.23264E+01   -0.38642E+01  8712   0.209E+01    0.117E+01
RMM:   2    -0.664825934568E+03   -0.12931E+02   -0.41359E+01  9327   0.149E+01    0.400E+01
RMM:   3    -0.650690542437E+03    0.14135E+02   -0.80278E+00  9175   0.737E+00    0.555E+00
RMM:   4    -0.650352683630E+03    0.33786E+00   -0.16419E+00 12025   0.238E+00    0.451E+00
RMM:   5    -0.650287173304E+03    0.65510E-01   -0.67107E-01 11168   0.163E+00    0.489E+00
RMM:   6    -0.650091618920E+03    0.19555E+00   -0.30228E-01 10455   0.130E+00    0.184E+00
RMM:   7    -0.650082323386E+03    0.92955E-02   -0.13788E-01 11396   0.867E-01    0.197E+00
RMM:   8    -0.650056183189E+03    0.26140E-01   -0.43435E-02 11251   0.470E-01    0.621E-01
RMM:   9    -0.650053860766E+03    0.23224E-02   -0.16027E-02 12414   0.244E-01    0.365E-01
RMM:  10    -0.650054353760E+03   -0.49299E-03   -0.58108E-03 12208   0.134E-01    0.408E-01
WARNING in EDDRMM: call to ZHEGV failed, returncode =   8  4      8
RMM:  11    -0.650053945888E+03    0.40787E-03   -0.27522E-03 11795   0.910E-02    0.236E-01
RMM:  12    -0.650054634491E+03   -0.68860E-03   -0.21486E-03 11963   0.815E-02    0.226E-01
RMM:  13    -0.650054997434E+03   -0.36294E-03   -0.17672E-03 11668   0.770E-02    0.215E-01
RMM:  14    -0.650054969474E+03    0.27959E-04   -0.13168E-03 11682   0.654E-02    0.871E-02
RMM:  15    -0.650055046881E+03   -0.77406E-04   -0.70937E-04 11595   0.479E-02    0.104E-01
RMM:  16    -0.650055000993E+03    0.45888E-04   -0.31113E-04 10872   0.317E-02    0.475E-02
RMM:  17    -0.650054996825E+03    0.41677E-05   -0.13855E-04 10223   0.213E-02    0.305E-02
RMM:  18    -0.650054997161E+03   -0.33600E-06   -0.48048E-05  8445   0.157E-02
   4 F= -.65005500E+03 E0= -.64996688E+03  d E =-.189287E+03
 curvature:  -0.11 expect dE=-0.297E+00 dE for cont linesearch -0.239E-01
 ZBRENT: interpolating
 opt :   0.7798  next Energy=  -650.088345 (dE=-0.189E+03)
 bond charge predicted
       N       E                     dE             d eps       ncg     rms          rms(c)
DAV:   1    -0.650376480494E+03   -0.32148E+00   -0.57938E+00  8808   0.814E+00    0.474E+00
RMM:   2    -0.652566195517E+03   -0.21897E+01   -0.59799E+00  9514   0.561E+00    0.161E+01
RMM:   3    -0.650181702455E+03    0.23845E+01   -0.13443E+00  9288   0.297E+00    0.180E+00
RMM:   4    -0.650142873054E+03    0.38829E-01   -0.26526E-01 11933   0.943E-01    0.197E+00
RMM:   5    -0.650125898682E+03    0.16974E-01   -0.98182E-02 11360   0.598E-01    0.180E+00
RMM:   6    -0.650100987583E+03    0.24911E-01   -0.45794E-02 11109   0.476E-01    0.654E-01
RMM:   7    -0.650098554944E+03    0.24326E-02   -0.16689E-02 11764   0.303E-01    0.668E-01
RMM:   8    -0.650095608234E+03    0.29467E-02   -0.57436E-03 11547   0.166E-01    0.256E-01
RMM:   9    -0.650095351876E+03    0.25636E-03   -0.22119E-03 11927   0.918E-02    0.167E-01
RMM:  10    -0.650095364361E+03   -0.12484E-04   -0.88738E-04 11539   0.522E-02    0.149E-01
RMM:  11    -0.650095319927E+03    0.44434E-04   -0.42579E-04 11382   0.372E-02    0.810E-02
RMM:  12    -0.650095431915E+03   -0.11199E-03   -0.31808E-04 11190   0.320E-02    0.662E-02
RMM:  13    -0.650095524274E+03   -0.92359E-04   -0.29065E-04 11328   0.321E-02    0.690E-02
WARNING in EDDRMM: call to ZHEGV failed, returncode =   8  4      8
RMM:  14    -0.650095535366E+03   -0.11092E-04   -0.18174E-04 10604   0.249E-02    0.423E-02
RMM:  15    -0.650095538058E+03   -0.26919E-05   -0.99523E-05 10070   0.190E-02
   5 F= -.65009554E+03 E0= -.65000839E+03  d E =-.189328E+03
 curvature:  -0.15 expect dE=-0.398E+00 dE for cont linesearch -0.259E-06
 trial: gam= 0.00878 g(F)=  0.264E+01 g(S)=  0.678E-01 ort =-0.234E-01 (trialstep = 0.956E+00)
 search vector abs. value=  0.273E+01
 bond charge predicted
       N       E                     dE             d eps       ncg     rms          rms(c)
DAV:   1    -0.648723887172E+03    0.13716E+01   -0.41146E+02  8064   0.721E+01    0.436E+00
RMM:   2    -0.652672442506E+03   -0.39486E+01   -0.39308E+01 12200   0.174E+01    0.803E+00
RMM:   3    -0.652087840031E+03    0.58460E+00   -0.40873E+00 12363   0.578E+00    0.385E+00
RMM:   4    -0.651941093850E+03    0.14675E+00   -0.97224E-01 13327   0.227E+00    0.233E+00
RMM:   5    -0.651938581740E+03    0.25121E-02   -0.42100E-01 12646   0.121E+00    0.290E+00
RMM:   6    -0.651891677730E+03    0.46904E-01   -0.29848E-01 12565   0.105E+00    0.173E+00
RMM:   7    -0.651869597036E+03    0.22081E-01   -0.11062E-01 12455   0.733E-01    0.127E+00
RMM:   8    -0.651860927240E+03    0.86698E-02   -0.51423E-02 12793   0.395E-01    0.733E-01
RMM:   9    -0.651859995161E+03    0.93208E-03   -0.26296E-02 12594   0.275E-01    0.600E-01
RMM:  10    -0.651857521525E+03    0.24736E-02   -0.11002E-02 12646   0.166E-01    0.304E-01
RMM:  11    -0.651857146382E+03    0.37514E-03   -0.46046E-03 12534   0.106E-01    0.197E-01
RMM:  12    -0.651857191905E+03   -0.45523E-04   -0.21346E-03 12048   0.701E-02    0.179E-01
RMM:  13    -0.651857201911E+03   -0.10006E-04   -0.12072E-03 11780   0.538E-02    0.124E-01
RMM:  14    -0.651857237266E+03   -0.35355E-04   -0.80290E-04 12001   0.467E-02    0.909E-02
RMM:  15    -0.651857230756E+03    0.65104E-05   -0.41298E-04 11189   0.367E-02    0.744E-02
RMM:  16    -0.651857197535E+03    0.33221E-04   -0.18325E-04 10228   0.236E-02    0.244E-02
WARNING in EDDRMM: call to ZHEGV failed, returncode =   8  4      9
RMM:  17    -0.651857193629E+03    0.39059E-05   -0.83981E-05  9208   0.173E-02
   6 F= -.65185719E+03 E0= -.65178087E+03  d E =-.176166E+01
 trial-energy change:   -1.761656  1 .order   -1.739522   -2.586518   -0.892527
 step:   1.4075(harm=  1.4596)  dis= 0.10048  next Energy=  -652.070322 (dE=-0.197E+01)
 bond charge predicted
       N       E                     dE             d eps       ncg     rms          rms(c)
DAV:   1    -0.651361973919E+03    0.49522E+00   -0.92110E+01  8064   0.343E+01    0.204E+00
RMM:   2    -0.652212262623E+03   -0.85029E+00   -0.86764E+00 11958   0.828E+00    0.342E+00
RMM:   3    -0.652113029943E+03    0.99233E-01   -0.92451E-01 12305   0.281E+00    0.178E+00
RMM:   4    -0.652081523236E+03    0.31507E-01   -0.21369E-01 13255   0.105E+00    0.102E+00
RMM:   5    -0.652082703274E+03   -0.11800E-02   -0.92068E-02 12611   0.561E-01    0.133E+00
RMM:   6    -0.652071667636E+03    0.11036E-01   -0.59872E-02 12555   0.488E-01    0.712E-01
RMM:   7    -0.652067315055E+03    0.43526E-02   -0.21532E-02 12611   0.300E-01    0.504E-01
RMM:   8    -0.652066123020E+03    0.11920E-02   -0.10343E-02 12650   0.176E-01    0.335E-01
RMM:   9    -0.652065791798E+03    0.33122E-03   -0.50798E-03 12525   0.114E-01    0.236E-01
RMM:  10    -0.652065454085E+03    0.33771E-03   -0.21468E-03 12087   0.764E-02    0.140E-01
RMM:  11    -0.652065371263E+03    0.82822E-04   -0.92886E-04 11587   0.495E-02    0.832E-02
RMM:  12    -0.652065391068E+03   -0.19805E-04   -0.42319E-04 11203   0.339E-02    0.749E-02
RMM:  13    -0.652065404794E+03   -0.13727E-04   -0.26045E-04 10733   0.270E-02    0.571E-02
RMM:  14    -0.652065403545E+03    0.12496E-05   -0.16082E-04 10345   0.227E-02    0.206E-02
RMM:  15    -0.652065404441E+03   -0.89662E-06   -0.66131E-05  8897   0.170E-02
   7 F= -.65206540E+03 E0= -.65199363E+03  d E =-.196987E+01
 curvature:  -0.73 expect dE=-0.658E+00 dE for cont linesearch -0.150E-03
 trial: gam= 0.31405 g(F)=  0.563E+00 g(S)=  0.341E+00 ort =-0.237E-01 (trialstep = 0.105E+01)
 search vector abs. value=  0.116E+01
 bond charge predicted
       N       E                     dE             d eps       ncg     rms          rms(c)
DAV:   1    -0.651366993103E+03    0.69841E+00   -0.25752E+02  8088   0.674E+01    0.140E+01
RMM:   2    -0.668014007050E+03   -0.16647E+02   -0.65343E+01 10969   0.213E+01    0.279E+01
RMM:   3    -0.653200939706E+03    0.14813E+02   -0.12265E+01 10462   0.947E+00    0.600E+00
RMM:   4    -0.652746387191E+03    0.45455E+00   -0.31323E+00 12505   0.380E+00    0.393E+00
RMM:   5    -0.652627682697E+03    0.11870E+00   -0.10300E+00 12402   0.209E+00    0.425E+00
RMM:   6    -0.652537384703E+03    0.90298E-01   -0.45420E-01 12315   0.131E+00    0.294E+00
RMM:   7    -0.652465827433E+03    0.71557E-01   -0.24838E-01 11912   0.116E+00    0.166E+00
RMM:   8    -0.652458525659E+03    0.73018E-02   -0.12728E-01 11754   0.788E-01    0.148E+00
RMM:   9    -0.652439843011E+03    0.18683E-01   -0.42359E-02 12128   0.451E-01    0.449E-01
RMM:  10    -0.652438752024E+03    0.10910E-02   -0.13910E-02 12251   0.213E-01    0.328E-01
RMM:  11    -0.652438929666E+03   -0.17764E-03   -0.64755E-03 12334   0.126E-01    0.304E-01
RMM:  12    -0.652438681303E+03    0.24836E-03   -0.31573E-03 11982   0.952E-02    0.171E-01
RMM:  13    -0.652438879620E+03   -0.19832E-03   -0.20491E-03 11832   0.720E-02    0.123E-01
WARNING in EDDRMM: call to ZHEGV failed, returncode =   8  4     10
RMM:  14    -0.652439088068E+03   -0.20845E-03   -0.13991E-03 11813   0.691E-02    0.113E-01
RMM:  15    -0.652439035159E+03    0.52909E-04   -0.68381E-04 11391   0.441E-02    0.595E-02
RMM:  16    -0.652439031448E+03    0.37102E-05   -0.33724E-04 10939   0.305E-02    0.438E-02
RMM:  17    -0.652439026394E+03    0.50545E-05   -0.17122E-04 10368   0.219E-02    0.352E-02
RMM:  18    -0.652439024296E+03    0.20983E-05   -0.75117E-05  9347   0.164E-02
   8 F= -.65243902E+03 E0= -.65237069E+03  d E =-.373620E+00
 trial-energy change:   -0.373620  1 .order   -0.371926   -0.937544    0.193692
 step:   0.8685(harm=  0.8671)  dis= 0.04197  next Energy=  -652.455475 (dE=-0.390E+00)
 bond charge predicted
       N       E                     dE             d eps       ncg     rms          rms(c)
DAV:   1    -0.652422787692E+03    0.16239E-01   -0.73840E+00  8640   0.116E+01    0.218E+00
RMM:   2    -0.652939127278E+03   -0.51634E+00   -0.21864E+00 10029   0.389E+00    0.648E+00
RMM:   3    -0.652473888878E+03    0.46524E+00   -0.37997E-01 10070   0.175E+00    0.885E-01
RMM:   4    -0.652469452076E+03    0.44368E-02   -0.79105E-02 12476   0.608E-01    0.104E+00
RMM:   5    -0.652459343858E+03    0.10108E-01   -0.22143E-02 11749   0.334E-01    0.530E-01
RMM:   6    -0.652457679111E+03    0.16647E-02   -0.13066E-02 12012   0.261E-01    0.434E-01
WARNING in EDDRMM: call to ZHEGV failed, returncode =   8  4      5
RMM:   7    -0.652457408875E+03    0.27024E-03   -0.78596E-03 11776   0.194E-01    0.439E-01
RMM:   8    -0.652455705584E+03    0.17033E-02   -0.29323E-03 11446   0.128E-01    0.116E-01
RMM:   9    -0.652455719389E+03   -0.13805E-04   -0.10040E-03 11669   0.623E-02    0.131E-01
RMM:  10    -0.652455614306E+03    0.10508E-03   -0.40394E-04 11073   0.373E-02    0.548E-02
RMM:  11    -0.652455611588E+03    0.27179E-05   -0.16285E-04 10428   0.220E-02    0.317E-02
RMM:  12    -0.652455627443E+03   -0.15855E-04   -0.78690E-05  9290   0.162E-02    0.298E-02
RMM:  13    -0.652455635849E+03   -0.84061E-05   -0.48441E-05  8255   0.154E-02
   9 F= -.65245564E+03 E0= -.65238643E+03  d E =-.390231E+00
 curvature:  -0.56 expect dE=-0.353E+00 dE for cont linesearch -0.145E-04
 trial: gam= 0.66504 g(F)=  0.340E+00 g(S)=  0.291E+00 ort =-0.548E-02 (trialstep = 0.101E+01)
 search vector abs. value=  0.114E+01
 bond charge predicted
       N       E                     dE             d eps       ncg     rms          rms(c)
DAV:   1    -0.649440248065E+03    0.30154E+01   -0.24446E+02  8064   0.662E+01    0.493E+00
RMM:   2    -0.654132689863E+03   -0.46924E+01   -0.41799E+01 10913   0.171E+01    0.101E+01
RMM:   3    -0.652857136123E+03    0.12756E+01   -0.46909E+00 10736   0.643E+00    0.309E+00
RMM:   4    -0.652797253349E+03    0.59883E-01   -0.79703E-01 12878   0.190E+00    0.241E+00
RMM:   5    -0.652749383970E+03    0.47869E-01   -0.23762E-01 12106   0.107E+00    0.166E+00
RMM:   6    -0.652743711529E+03    0.56724E-02   -0.17109E-01 12250   0.856E-01    0.154E+00
RMM:   7    -0.652725921860E+03    0.17790E-01   -0.78362E-02 12222   0.619E-01    0.104E+00
RMM:   8    -0.652716892670E+03    0.90292E-02   -0.30185E-02 12582   0.327E-01    0.357E-01
RMM:   9    -0.652717264117E+03   -0.37145E-03   -0.12499E-02 12360   0.194E-01    0.324E-01
RMM:  10    -0.652716854460E+03    0.40966E-03   -0.54991E-03 12240   0.122E-01    0.225E-01
RMM:  11    -0.652716713581E+03    0.14088E-03   -0.23514E-03 11654   0.737E-02    0.126E-01
RMM:  12    -0.652716805544E+03   -0.91964E-04   -0.10954E-03 11545   0.474E-02    0.891E-02
RMM:  13    -0.652716928125E+03   -0.12258E-03   -0.67425E-04 11441   0.421E-02    0.662E-02
RMM:  14    -0.652716981284E+03   -0.53159E-04   -0.38866E-04 11035   0.356E-02    0.676E-02
RMM:  15    -0.652716953351E+03    0.27933E-04   -0.19119E-04 10512   0.258E-02    0.196E-02
WARNING in EDDRMM: call to ZHEGV failed, returncode =   6  3     10
RMM:  16    -0.652716952947E+03    0.40481E-06   -0.82626E-05  9111   0.170E-02
  10 F= -.65271695E+03 E0= -.65265759E+03  d E =-.261317E+00
 trial-energy change:   -0.261317  1 .order   -0.231224   -0.634078    0.171631
 step:   0.8288(harm=  0.7954)  dis= 0.05183  next Energy=  -652.732220 (dE=-0.277E+00)
 bond charge predicted
       N       E                     dE             d eps       ncg     rms          rms(c)
DAV:   1    -0.652624258413E+03    0.92695E-01   -0.79174E+00  8304   0.120E+01    0.895E-01
RMM:   2    -0.652771602016E+03   -0.14734E+00   -0.13407E+00 10764   0.305E+00    0.165E+00
RMM:   3    -0.652736627253E+03    0.34975E-01   -0.14958E-01 10362   0.115E+00    0.546E-01
RMM:   4    -0.652734477707E+03    0.21495E-02   -0.24802E-02 12840   0.337E-01    0.412E-01
RMM:   5    -0.652733434208E+03    0.10435E-02   -0.72572E-03 12173   0.180E-01    0.317E-01
RMM:   6    -0.652733205590E+03    0.22862E-03   -0.51441E-03 12294   0.140E-01    0.276E-01
RMM:   7    -0.652732533571E+03    0.67202E-03   -0.24591E-03 12237   0.103E-01    0.172E-01
RMM:   8    -0.652732275064E+03    0.25851E-03   -0.99008E-04 11849   0.610E-02    0.742E-02
RMM:   9    -0.652732265608E+03    0.94564E-05   -0.39804E-04 11228   0.363E-02    0.618E-02
RMM:  10    -0.652732242576E+03    0.23032E-04   -0.18300E-04 10602   0.261E-02    0.431E-02
RMM:  11    -0.652732230503E+03    0.12073E-04   -0.73606E-05  9343   0.169E-02    0.213E-02
WARNING in EDDRMM: call to ZHEGV failed, returncode =   6  3     10
RMM:  12    -0.652732229599E+03    0.90344E-06   -0.28809E-05  7120   0.122E-02
  11 F= -.65273223E+03 E0= -.65267176E+03  d E =-.276594E+00
 curvature:  -0.70 expect dE=-0.216E+00 dE for cont linesearch -0.735E-06
 trial: gam= 0.35136 g(F)=  0.236E+00 g(S)=  0.724E-01 ort = 0.109E-02 (trialstep = 0.974E+00)
 search vector abs. value=  0.449E+00
 bond charge predicted
       N       E                     dE             d eps       ncg     rms          rms(c)
DAV:   1    -0.652381580602E+03    0.35065E+00   -0.75435E+01  8064   0.315E+01    0.267E+00
RMM:   2    -0.653059990362E+03   -0.67841E+00   -0.76074E+00 12000   0.759E+00    0.304E+00
RMM:   3    -0.652970308553E+03    0.89682E-01   -0.90383E-01 12166   0.262E+00    0.209E+00
RMM:   4    -0.652924828107E+03    0.45480E-01   -0.21570E-01 12675   0.986E-01    0.113E+00
RMM:   5    -0.652922872161E+03    0.19559E-02   -0.97339E-02 12169   0.620E-01    0.119E+00
RMM:   6    -0.652914790759E+03    0.80814E-02   -0.51472E-02 12357   0.421E-01    0.714E-01
RMM:   7    -0.652910074522E+03    0.47162E-02   -0.21201E-02 12387   0.271E-01    0.413E-01
RMM:   8    -0.652908886117E+03    0.11884E-02   -0.86866E-03 12252   0.148E-01    0.186E-01
RMM:   9    -0.652908845948E+03    0.40169E-04   -0.33885E-03 12123   0.861E-02    0.124E-01
RMM:  10    -0.652908796564E+03    0.49384E-04   -0.14483E-03 11500   0.558E-02    0.935E-02
RMM:  11    -0.652908794454E+03    0.21098E-05   -0.70735E-04 11035   0.395E-02    0.607E-02
RMM:  12    -0.652908796550E+03   -0.20960E-05   -0.34051E-04 10846   0.299E-02    0.340E-02
RMM:  13    -0.652908800929E+03   -0.43794E-05   -0.15708E-04  9894   0.215E-02    0.299E-02
RMM:  14    -0.652908800563E+03    0.36666E-06   -0.77822E-05  8858   0.164E-02
  12 F= -.65290880E+03 E0= -.65285030E+03  d E =-.176571E+00
 trial-energy change:   -0.176571  1 .order   -0.175287   -0.300430   -0.050144
 step:   1.1626(harm=  1.1695)  dis= 0.03757  next Energy=  -652.913655 (dE=-0.181E+00)
 bond charge predicted
       N       E                     dE             d eps       ncg     rms          rms(c)
DAV:   1    -0.652894009105E+03    0.14792E-01   -0.28140E+00  8688   0.610E+00    0.513E-01
RMM:   2    -0.652919416356E+03   -0.25407E-01   -0.28422E-01 12086   0.146E+00    0.591E-01
RMM:   3    -0.652916011519E+03    0.34048E-02   -0.34533E-02 12288   0.502E-01    0.401E-01
RMM:   4    -0.652914358044E+03    0.16535E-02   -0.79591E-03 12665   0.189E-01    0.222E-01
RMM:   5    -0.652914193238E+03    0.16481E-03   -0.37416E-03 12147   0.120E-01    0.220E-01
RMM:   6    -0.652913972068E+03    0.22117E-03   -0.19868E-03 12209   0.828E-02    0.148E-01
WARNING in EDDRMM: call to ZHEGV failed, returncode =   8  4      6
RMM:   7    -0.652913763444E+03    0.20862E-03   -0.81428E-04 11330   0.525E-02    0.804E-02
WARNING in EDDRMM: call to ZHEGV failed, returncode =   6  3      9
RMM:   8    -0.652913719259E+03    0.44185E-04   -0.34467E-04 10689   0.315E-02    0.376E-02
RMM:   9    -0.652913712924E+03    0.63348E-05   -0.11706E-04  9526   0.194E-02    0.210E-02
WARNING in EDDRMM: call to ZHEGV failed, returncode =   8  4      6
RMM:  10    -0.652913710591E+03    0.23334E-05   -0.48702E-05  8221   0.141E-02
  13 F= -.65291371E+03 E0= -.65285529E+03  d E =-.181481E+00
 curvature:  -0.85 expect dE=-0.118E+00 dE for cont linesearch -0.335E-07
 trial: gam= 0.35568 g(F)=  0.114E+00 g(S)=  0.247E-01 ort =-0.133E-03 (trialstep = 0.101E+01)
 search vector abs. value=  0.196E+00
 bond charge predicted
       N       E                     dE             d eps       ncg     rms          rms(c)
DAV:   1    -0.652862559723E+03    0.51153E-01   -0.33398E+01  8064   0.176E+01    0.152E+00
RMM:   2    -0.653111294408E+03   -0.24873E+00   -0.23703E+00 12242   0.416E+00    0.246E+00
RMM:   3    -0.653030457666E+03    0.80837E-01   -0.28487E-01 12486   0.147E+00    0.940E-01
RMM:   4    -0.653024085736E+03    0.63719E-02   -0.65976E-02 12658   0.557E-01    0.757E-01
RMM:   5    -0.653020714391E+03    0.33713E-02   -0.29876E-02 12242   0.319E-01    0.619E-01
RMM:   6    -0.653019574620E+03    0.11398E-02   -0.18102E-02 12172   0.259E-01    0.482E-01
RMM:   7    -0.653017668586E+03    0.19060E-02   -0.81000E-03 12298   0.175E-01    0.276E-01
RMM:   8    -0.653016934907E+03    0.73368E-03   -0.28505E-03 12208   0.919E-02    0.915E-02
WARNING in EDDRMM: call to ZHEGV failed, returncode =   6  3      5
RMM:   9    -0.653016938084E+03   -0.31775E-05   -0.10970E-03 11403   0.485E-02    0.662E-02
RMM:  10    -0.653016924132E+03    0.13952E-04   -0.44320E-04 10899   0.319E-02    0.520E-02
WARNING in EDDRMM: call to ZHEGV failed, returncode =   8  4      5
RMM:  11    -0.653016928579E+03   -0.44469E-05   -0.22761E-04 10205   0.237E-02    0.408E-02
RMM:  12    -0.653016925346E+03    0.32337E-05   -0.12888E-04  9742   0.194E-02    0.213E-02
WARNING in EDDRMM: call to ZHEGV failed, returncode =   8  4      8
RMM:  13    -0.653016925134E+03    0.21184E-06   -0.52340E-05  8107   0.158E-02
  14 F= -.65301693E+03 E0= -.65295762E+03  d E =-.103215E+00
 trial-energy change:   -0.103215  1 .order   -0.101352   -0.140604   -0.062099
 step:   1.6609(harm=  1.8125)  dis= 0.07059  next Energy=  -653.037325 (dE=-0.124E+00)
 bond charge predicted
       N       E                     dE             d eps       ncg     rms          rms(c)
DAV:   1    -0.652975050824E+03    0.41875E-01   -0.13733E+01  8064   0.113E+01    0.962E-01
RMM:   2    -0.653073371466E+03   -0.98321E-01   -0.96408E-01 12239   0.266E+00    0.149E+00
RMM:   3    -0.653043982224E+03    0.29389E-01   -0.11647E-01 12508   0.935E-01    0.621E-01
RMM:   4    -0.653041074482E+03    0.29077E-02   -0.27020E-02 12669   0.354E-01    0.467E-01
RMM:   5    -0.653039840367E+03    0.12341E-02   -0.12420E-02 12269   0.207E-01    0.404E-01
RMM:   6    -0.653039302268E+03    0.53810E-03   -0.74829E-03 12187   0.165E-01    0.305E-01
RMM:   7    -0.653038589040E+03    0.71323E-03   -0.33452E-03 12216   0.112E-01    0.185E-01
RMM:   8    -0.653038251623E+03    0.33742E-03   -0.11671E-03 11715   0.595E-02    0.548E-02
RMM:   9    -0.653038256614E+03   -0.49919E-05   -0.44604E-04 10826   0.319E-02    0.405E-02
WARNING in EDDRMM: call to ZHEGV failed, returncode =   8  4      7
RMM:  10    -0.653038248578E+03    0.80362E-05   -0.17625E-04 10030   0.213E-02    0.278E-02
WARNING in EDDRMM: call to ZHEGV failed, returncode =   6  3     10
RMM:  11    -0.653038254376E+03   -0.57979E-05   -0.10029E-04  9036   0.170E-02    0.280E-02
RMM:  12    -0.653038248856E+03    0.55205E-05   -0.49489E-05  8176   0.152E-02
  15 F= -.65303825E+03 E0= -.65297891E+03  d E =-.124538E+00
 curvature:  -1.23 expect dE=-0.125E+00 dE for cont linesearch -0.436E-04
 trial: gam= 0.61132 g(F)=  0.665E-01 g(S)=  0.354E-01 ort = 0.263E-02 (trialstep = 0.114E+01)
 search vector abs. value=  0.178E+00
 bond charge predicted
       N       E                     dE             d eps       ncg     rms          rms(c)
DAV:   1    -0.653087424955E+03   -0.49171E-01   -0.38312E+01  8064   0.189E+01    0.376E+00
RMM:   2    -0.654113127450E+03   -0.10257E+01   -0.53790E+00 10271   0.630E+00    0.911E+00
RMM:   3    -0.653134699427E+03    0.97843E+00   -0.95100E-01 10353   0.280E+00    0.180E+00
RMM:   4    -0.653121188325E+03    0.13511E-01   -0.24805E-01 12550   0.105E+00    0.195E+00
RMM:   5    -0.653088025534E+03    0.33163E-01   -0.87239E-02 11841   0.632E-01    0.105E+00
RMM:   6    -0.653079435855E+03    0.85897E-02   -0.49701E-02 12134   0.507E-01    0.702E-01
RMM:   7    -0.653078219527E+03    0.12163E-02   -0.25034E-02 12155   0.340E-01    0.624E-01
RMM:   8    -0.653074401800E+03    0.38177E-02   -0.88071E-03 12199   0.214E-01    0.181E-01
RMM:   9    -0.653074410383E+03   -0.85831E-05   -0.29204E-03 12194   0.101E-01    0.170E-01
RMM:  10    -0.653074285523E+03    0.12486E-03   -0.11937E-03 11571   0.585E-02    0.941E-02
RMM:  11    -0.653074317132E+03   -0.31609E-04   -0.56635E-04 11374   0.392E-02    0.652E-02
RMM:  12    -0.653074409404E+03   -0.92272E-04   -0.37348E-04 11225   0.328E-02    0.676E-02
RMM:  13    -0.653074419737E+03   -0.10333E-04   -0.22458E-04 11026   0.286E-02    0.347E-02
RMM:  14    -0.653074432186E+03   -0.12448E-04   -0.11016E-04  9970   0.195E-02    0.168E-02
RMM:  15    -0.653074433658E+03   -0.14722E-05   -0.38957E-05  8017   0.151E-02
  16 F= -.65307443E+03 E0= -.65301685E+03  d E =-.361848E-01
 trial-energy change:   -0.036185  1 .order   -0.034098   -0.118103    0.049906
 step:   0.8198(harm=  0.8026)  dis= 0.02845  next Energy=  -653.081423 (dE=-0.432E-01)
 bond charge predicted
       N       E                     dE             d eps       ncg     rms          rms(c)
DAV:   1    -0.653083148707E+03   -0.87165E-02   -0.30522E+00  8064   0.533E+00    0.111E+00
RMM:   2    -0.653173959379E+03   -0.90811E-01   -0.43733E-01 10452   0.178E+00    0.256E+00
RMM:   3    -0.653085854615E+03    0.88105E-01   -0.79700E-02 10473   0.803E-01    0.445E-01
RMM:   4    -0.653085336646E+03    0.51797E-03   -0.20401E-02 12525   0.298E-01    0.560E-01
RMM:   5    -0.653082625421E+03    0.27112E-02   -0.71127E-03 11946   0.174E-01    0.290E-01
RMM:   6    -0.653082026361E+03    0.59906E-03   -0.39785E-03 12190   0.138E-01    0.205E-01
RMM:   7    -0.653081858732E+03    0.16763E-03   -0.19913E-03 12081   0.953E-02    0.178E-01
RMM:   8    -0.653081550693E+03    0.30804E-03   -0.71760E-04 11137   0.609E-02    0.519E-02
RMM:   9    -0.653081541175E+03    0.95187E-05   -0.22667E-04 11039   0.302E-02    0.494E-02
WARNING in EDDRMM: call to ZHEGV failed, returncode =   8  4      8
RMM:  10    -0.653081523335E+03    0.17840E-04   -0.93293E-05  9751   0.183E-02    0.257E-02
WARNING in EDDRMM: call to ZHEGV failed, returncode =   8  4      6
RMM:  11    -0.653081519757E+03    0.35783E-05   -0.46879E-05  8051   0.136E-02
  17 F= -.65308152E+03 E0= -.65302342E+03  d E =-.432709E-01
 curvature:  -0.69 expect dE=-0.424E-01 dE for cont linesearch -0.423E-07
 trial: gam= 0.52459 g(F)=  0.334E-01 g(S)=  0.281E-01 ort = 0.105E-03 (trialstep = 0.108E+01)
 search vector abs. value=  0.111E+00
 bond charge predicted
       N       E                     dE             d eps       ncg     rms          rms(c)
DAV:   1    -0.653004835277E+03    0.76688E-01   -0.22187E+01  8184   0.165E+01    0.240E+00
RMM:   2    -0.653543254826E+03   -0.53842E+00   -0.30577E+00 11286   0.470E+00    0.555E+00
RMM:   3    -0.653122039277E+03    0.42122E+00   -0.48056E-01 11061   0.201E+00    0.916E-01
RMM:   4    -0.653121690119E+03    0.34916E-03   -0.11926E-01 12703   0.724E-01    0.123E+00
RMM:   5    -0.653108237862E+03    0.13452E-01   -0.38691E-02 12349   0.397E-01    0.575E-01
RMM:   6    -0.653106973143E+03    0.12647E-02   -0.21405E-02 12384   0.302E-01    0.483E-01
RMM:   7    -0.653105683225E+03    0.12899E-02   -0.11072E-02 12379   0.215E-01    0.389E-01
WARNING in EDDRMM: call to ZHEGV failed, returncode =   6  3      5
RMM:   8    -0.653104350193E+03    0.13330E-02   -0.42481E-03 12381   0.138E-01    0.135E-01
RMM:   9    -0.653104299802E+03    0.50391E-04   -0.14754E-03 11901   0.694E-02    0.113E-01
RMM:  10    -0.653104242305E+03    0.57497E-04   -0.62042E-04 10985   0.410E-02    0.659E-02
RMM:  11    -0.653104245051E+03   -0.27462E-05   -0.29388E-04 10757   0.278E-02    0.419E-02
WARNING in EDDRMM: call to ZHEGV failed, returncode =   8  4      9
RMM:  12    -0.653104255073E+03   -0.10022E-04   -0.16526E-04 10169   0.217E-02    0.294E-02
RMM:  13    -0.653104264997E+03   -0.99232E-05   -0.10829E-04  9882   0.204E-02    0.337E-02
RMM:  14    -0.653104255037E+03    0.99591E-05   -0.46086E-05  8532   0.163E-02
  18 F= -.65310426E+03 E0= -.65304645E+03  d E =-.227353E-01
 trial-energy change:   -0.022735  1 .order   -0.023014   -0.066242    0.020214
 step:   0.8217(harm=  0.8255)  dis= 0.01755  next Energy=  -653.106657 (dE=-0.251E-01)
 bond charge predicted
       N       E                     dE             d eps       ncg     rms          rms(c)
DAV:   1    -0.653101054142E+03    0.32109E-02   -0.12501E+00  8208   0.392E+00    0.557E-01
RMM:   2    -0.653130236909E+03   -0.29183E-01   -0.17088E-01 11118   0.112E+00    0.134E+00
RMM:   3    -0.653107800646E+03    0.22436E-01   -0.26279E-02 10987   0.477E-01    0.255E-01
RMM:   4    -0.653107781447E+03    0.19200E-04   -0.67923E-03 12724   0.177E-01    0.315E-01
RMM:   5    -0.653106860548E+03    0.92090E-03   -0.21634E-03 11994   0.976E-02    0.134E-01
RMM:   6    -0.653106802270E+03    0.58278E-04   -0.12464E-03 12194   0.759E-02    0.121E-01
RMM:   7    -0.653106737734E+03    0.64535E-04   -0.66839E-04 11828   0.551E-02    0.966E-02
RMM:   8    -0.653106652331E+03    0.85403E-04   -0.25178E-04 10920   0.351E-02    0.321E-02
WARNING in EDDRMM: call to ZHEGV failed, returncode =   8  4      7
RMM:   9    -0.653106654313E+03   -0.19816E-05   -0.86124E-05  9393   0.193E-02
  19 F= -.65310665E+03 E0= -.65304877E+03  d E =-.251346E-01
 curvature:  -0.74 expect dE=-0.152E-01 dE for cont linesearch -0.270E-06
 trial: gam= 0.28994 g(F)=  0.161E-01 g(S)=  0.436E-02 ort = 0.201E-03 (trialstep = 0.103E+01)
 search vector abs. value=  0.299E-01
 bond charge predicted
       N       E                     dE             d eps       ncg     rms          rms(c)
DAV:   1    -0.653056741313E+03    0.49911E-01   -0.59882E+00  8088   0.997E+00    0.749E-01
RMM:   2    -0.653141993752E+03   -0.85252E-01   -0.81287E-01 11949   0.238E+00    0.125E+00
RMM:   3    -0.653122136171E+03    0.19858E-01   -0.93386E-02 11747   0.892E-01    0.438E-01
RMM:   4    -0.653120825849E+03    0.13103E-02   -0.19923E-02 12914   0.298E-01    0.327E-01
RMM:   5    -0.653120256071E+03    0.56978E-03   -0.69770E-03 12460   0.166E-01    0.261E-01
RMM:   6    -0.653120006747E+03    0.24932E-03   -0.40114E-03 12470   0.117E-01    0.200E-01
RMM:   7    -0.653119743615E+03    0.26313E-03   -0.19942E-03 12377   0.904E-02    0.152E-01
RMM:   8    -0.653119546908E+03    0.19671E-03   -0.74151E-04 11714   0.500E-02    0.460E-02
RMM:   9    -0.653119556517E+03   -0.96085E-05   -0.28116E-04 10819   0.288E-02    0.373E-02
RMM:  10    -0.653119559408E+03   -0.28910E-05   -0.12305E-04  9929   0.209E-02    0.318E-02
RMM:  11    -0.653119557442E+03    0.19658E-05   -0.58672E-05  8732   0.156E-02
  20 F= -.65311956E+03 E0= -.65306167E+03  d E =-.129031E-01
 trial-energy change:   -0.012903  1 .order   -0.012961   -0.021046   -0.004876
 step:   1.3447(harm=  1.3358)  dis= 0.01344  next Energy=  -653.120312 (dE=-0.137E-01)
 bond charge predicted
       N       E                     dE             d eps       ncg     rms          rms(c)
DAV:   1    -0.653114162332E+03    0.53971E-02   -0.57653E-01  8688   0.310E+00    0.233E-01
RMM:   2    -0.653122472142E+03   -0.83098E-02   -0.78868E-02 11967   0.743E-01    0.391E-01
RMM:   3    -0.653120536504E+03    0.19356E-02   -0.92058E-03 11882   0.278E-01    0.134E-01
RMM:   4    -0.653120425804E+03    0.11070E-03   -0.20082E-03 12712   0.916E-02    0.102E-01
RMM:   5    -0.653120377303E+03    0.48501E-04   -0.73199E-04 11552   0.524E-02    0.813E-02
RMM:   6    -0.653120357615E+03    0.19688E-04   -0.42286E-04 11544   0.381E-02    0.627E-02
WARNING in EDDRMM: call to ZHEGV failed, returncode =   8  4      6
RMM:   7    -0.653120331805E+03    0.25810E-04   -0.20912E-04 11150   0.294E-02    0.457E-02
WARNING in EDDRMM: call to ZHEGV failed, returncode =   6  3      9
WARNING in EDDRMM: call to ZHEGV failed, returncode =   8  4     10
RMM:   8    -0.653120315045E+03    0.16761E-04   -0.75604E-05  9134   0.176E-02    0.144E-02
RMM:   9    -0.653120316949E+03   -0.19042E-05   -0.30237E-05  7356   0.130E-02
  21 F= -.65312032E+03 E0= -.65306241E+03  d E =-.136626E-01
 curvature:  -0.97 expect dE=-0.822E-02 dE for cont linesearch -0.755E-08
 trial: gam= 0.41054 g(F)=  0.670E-02 g(S)=  0.176E-02 ort =-0.152E-04 (trialstep = 0.109E+01)
 search vector abs. value=  0.135E-01
 bond charge predicted
       N       E                     dE             d eps       ncg     rms          rms(c)
DAV:   1    -0.653095779911E+03    0.24535E-01   -0.31445E+00  8136   0.701E+00    0.694E-01
RMM:   2    -0.653158030871E+03   -0.62251E-01   -0.46519E-01 10919   0.180E+00    0.153E+00
RMM:   3    -0.653127101701E+03    0.30929E-01   -0.58826E-02 10947   0.705E-01    0.305E-01
RMM:   4    -0.653126948941E+03    0.15276E-03   -0.11568E-02 12731   0.224E-01    0.352E-01
RMM:   5    -0.653125837935E+03    0.11110E-02   -0.32834E-03 12217   0.116E-01    0.176E-01
RMM:   6    -0.653125736322E+03    0.10161E-03   -0.19496E-03 12251   0.883E-02    0.148E-01
RMM:   7    -0.653125590267E+03    0.14605E-03   -0.10967E-03 12128   0.691E-02    0.127E-01
RMM:   8    -0.653125444346E+03    0.14592E-03   -0.40890E-04 11320   0.428E-02    0.421E-02
RMM:   9    -0.653125445259E+03   -0.91258E-06   -0.15156E-04 10286   0.243E-02    0.427E-02
RMM:  10    -0.653125431758E+03    0.13501E-04   -0.64202E-05  9316   0.168E-02    0.189E-02
RMM:  11    -0.653125429211E+03    0.25471E-05   -0.21479E-05  6581   0.115E-02
  22 F= -.65312543E+03 E0= -.65306772E+03  d E =-.511226E-02
 trial-energy change:   -0.005112  1 .order   -0.005053   -0.009214   -0.000892
 step:   1.2014(harm=  1.2067)  dis= 0.01029  next Energy=  -653.125475 (dE=-0.516E-02)
 bond charge predicted
       N       E                     dE             d eps       ncg     rms          rms(c)
DAV:   1    -0.653125165022E+03    0.26674E-03   -0.32885E-02  8784   0.718E-01    0.709E-02
RMM:   2    -0.653125831338E+03   -0.66632E-03   -0.49235E-03 11012   0.185E-01    0.161E-01
RMM:   3    -0.653125496082E+03    0.33526E-03   -0.63181E-04 10534   0.729E-02    0.308E-02
RMM:   4    -0.653125496757E+03   -0.67504E-06   -0.13725E-04 10342   0.251E-02    0.356E-02
RMM:   5    -0.653125484918E+03    0.11838E-04   -0.39990E-05  7148   0.151E-02    0.171E-02
WARNING in EDDRMM: call to ZHEGV failed, returncode =   6  3      8
RMM:   6    -0.653125483446E+03    0.14726E-05   -0.26804E-05  5854   0.134E-02
  23 F= -.65312548E+03 E0= -.65306779E+03  d E =-.516650E-02
 curvature:  -0.96 expect dE=-0.531E-02 dE for cont linesearch -0.263E-06
 trial: gam= 0.63998 g(F)=  0.262E-02 g(S)=  0.291E-02 ort = 0.607E-04 (trialstep = 0.111E+01)
 search vector abs. value=  0.111E-01
 bond charge predicted
       N       E                     dE             d eps       ncg     rms          rms(c)
DAV:   1    -0.653109389236E+03    0.16096E-01   -0.27420E+00  8112   0.661E+00    0.924E-01
RMM:   2    -0.653189893748E+03   -0.80505E-01   -0.50826E-01 10069   0.188E+00    0.212E+00
RMM:   3    -0.653130998956E+03    0.58895E-01   -0.71488E-02 10297   0.754E-01    0.425E-01
RMM:   4    -0.653130490786E+03    0.50817E-03   -0.15229E-02 12498   0.269E-01    0.498E-01
RMM:   5    -0.653128283585E+03    0.22072E-02   -0.50711E-03 11433   0.162E-01    0.247E-01
RMM:   6    -0.653127916975E+03    0.36661E-03   -0.30147E-03 11917   0.125E-01    0.186E-01
RMM:   7    -0.653127811249E+03    0.10573E-03   -0.16237E-03 11775   0.876E-02    0.159E-01
RMM:   8    -0.653127541141E+03    0.27011E-03   -0.56419E-04 10894   0.559E-02    0.402E-02
WARNING in EDDRMM: call to ZHEGV failed, returncode =   6  3      7
RMM:   9    -0.653127539025E+03    0.21159E-05   -0.17557E-04 10415   0.267E-02    0.274E-02
RMM:  10    -0.653127543659E+03   -0.46337E-05   -0.66499E-05  9061   0.164E-02
  24 F= -.65312754E+03 E0= -.65307031E+03  d E =-.206021E-02
 trial-energy change:   -0.002060  1 .order   -0.002074   -0.006196    0.002047
 step:   0.8360(harm=  0.8360)  dis= 0.00723  next Energy=  -653.127812 (dE=-0.233E-02)
 bond charge predicted
       N       E                     dE             d eps       ncg     rms          rms(c)
DAV:   1    -0.653126735704E+03    0.80332E-03   -0.16920E-01  8400   0.164E+00    0.230E-01
RMM:   2    -0.653131586559E+03   -0.48509E-02   -0.31010E-02 10217   0.465E-01    0.510E-01
RMM:   3    -0.653128058683E+03    0.35279E-02   -0.43576E-03 10436   0.186E-01    0.104E-01
RMM:   4    -0.653128034393E+03    0.24289E-04   -0.95334E-04 12187   0.676E-02    0.127E-01
RMM:   5    -0.653127890673E+03    0.14372E-03   -0.31040E-04  9848   0.409E-02    0.627E-02
RMM:   6    -0.653127860872E+03    0.29801E-04   -0.17183E-04  9989   0.316E-02    0.440E-02
RMM:   7    -0.653127855702E+03    0.51697E-05   -0.98905E-05  9014   0.248E-02
  25 F= -.65312786E+03 E0= -.65307050E+03  d E =-.237226E-02
 curvature:  -0.84 expect dE=-0.226E-02 dE for cont linesearch -0.270E-06
 trial: gam= 0.50377 g(F)=  0.158E-02 g(S)=  0.112E-02 ort = 0.600E-04 (trialstep = 0.106E+01)
 search vector abs. value=  0.559E-02
 bond charge predicted
       N       E                     dE             d eps       ncg     rms          rms(c)
DAV:   1    -0.653115645741E+03    0.12215E-01   -0.12715E+00  8064   0.457E+00    0.358E-01
RMM:   2    -0.653134841109E+03   -0.19195E-01   -0.17932E-01 10936   0.110E+00    0.611E-01
RMM:   3    -0.653130042485E+03    0.47986E-02   -0.20520E-02 10954   0.414E-01    0.197E-01
RMM:   4    -0.653129873305E+03    0.16918E-03   -0.36811E-03 12548   0.125E-01    0.186E-01
RMM:   5    -0.653129580902E+03    0.29240E-03   -0.10951E-03 11441   0.674E-02    0.106E-01
RMM:   6    -0.653129533811E+03    0.47091E-04   -0.69700E-04 12047   0.509E-02    0.852E-02
RMM:   7    -0.653129468703E+03    0.65107E-04   -0.35799E-04 11291   0.401E-02    0.661E-02
WARNING in EDDRMM: call to ZHEGV failed, returncode =   6  3      7
RMM:   8    -0.653129429653E+03    0.39051E-04   -0.12481E-04 10191   0.226E-02    0.219E-02
WARNING in EDDRMM: call to ZHEGV failed, returncode =   6  3      7
RMM:   9    -0.653129428868E+03    0.78433E-06   -0.46677E-05  8243   0.146E-02
  26 F= -.65312943E+03 E0= -.65307205E+03  d E =-.157317E-02
 trial-energy change:   -0.001573  1 .order   -0.001603   -0.002889   -0.000317
 step:   1.1870(harm=  1.1870)  dis= 0.00783  next Energy=  -653.129478 (dE=-0.162E-02)
 bond charge predicted
       N       E                     dE             d eps       ncg     rms          rms(c)
DAV:   1    -0.653129234957E+03    0.19470E-03   -0.19286E-02  8736   0.564E-01    0.460E-02
RMM:   2    -0.653129547439E+03   -0.31248E-03   -0.28045E-03 11211   0.137E-01    0.888E-02
RMM:   3    -0.653129453690E+03    0.93749E-04   -0.33346E-04 10232   0.526E-02    0.258E-02
RMM:   4    -0.653129454026E+03   -0.33692E-06   -0.76420E-05  8963   0.190E-02
  27 F= -.65312945E+03 E0= -.65307206E+03  d E =-.159832E-02
 curvature:  -1.21 expect dE=-0.110E-02 dE for cont linesearch -0.151E-05
 trial: gam= 0.20116 g(F)=  0.888E-03 g(S)=  0.188E-04 ort = 0.835E-04 (trialstep = 0.108E+01)
 search vector abs. value=  0.117E-02
 bond charge predicted
       N       E                     dE             d eps       ncg     rms          rms(c)
DAV:   1    -0.653126700417E+03    0.27533E-02   -0.28072E-01  8160   0.219E+00    0.110E-01
RMM:   2    -0.653130249345E+03   -0.35489E-02   -0.36989E-02 11318   0.510E-01    0.120E-01
RMM:   3    -0.653130218338E+03    0.31007E-04   -0.39141E-03 11099   0.182E-01    0.102E-01
RMM:   4    -0.653130154244E+03    0.64094E-04   -0.67020E-04 12034   0.550E-02    0.408E-02
RMM:   5    -0.653130149860E+03    0.43838E-05   -0.14973E-04 10127   0.268E-02    0.379E-02
RMM:   6    -0.653130145181E+03    0.46791E-05   -0.10182E-04 10015   0.189E-02    0.305E-02
RMM:   7    -0.653130137261E+03    0.79198E-05   -0.56532E-05  8903   0.156E-02
  28 F= -.65313014E+03 E0= -.65307267E+03  d E =-.683235E-03
 trial-energy change:   -0.000683  1 .order   -0.000680   -0.001000   -0.000361
 step:   1.6944(harm=  1.6944)  dis= 0.00387  next Energy=  -653.130236 (dE=-0.782E-03)
 bond charge predicted
       N       E                     dE             d eps       ncg     rms          rms(c)
DAV:   1    -0.653129132997E+03    0.10122E-02   -0.89284E-02  8496   0.123E+00    0.635E-02
RMM:   2    -0.653130263347E+03   -0.11303E-02   -0.11852E-02 11446   0.288E-01    0.726E-02
RMM:   3    -0.653130251476E+03    0.11871E-04   -0.12776E-03 10931   0.103E-01    0.586E-02
WARNING in EDDRMM: call to ZHEGV failed, returncode =   6  3      7
WARNING in EDDRMM: call to ZHEGV failed, returncode =   6  3      9
RMM:   4    -0.653130231079E+03    0.20397E-04   -0.22793E-04 10853   0.328E-02    0.233E-02
WARNING in EDDRMM: call to ZHEGV failed, returncode =   6  3      6
RMM:   5    -0.653130229566E+03    0.15137E-05   -0.55085E-05  8367   0.185E-02
  29 F= -.65313023E+03 E0= -.65307273E+03  d E =-.775539E-03
 curvature:  -1.07 expect dE=-0.674E-03 dE for cont linesearch -0.566E-05
 trial: gam= 0.77216 g(F)=  0.373E-03 g(S)=  0.256E-03 ort =-0.786E-04 (trialstep = 0.117E+01)
 search vector abs. value=  0.120E-02
 bond charge predicted
       N       E                     dE             d eps       ncg     rms          rms(c)
DAV:   1    -0.653128535414E+03    0.16957E-02   -0.32809E-01  8064   0.234E+00    0.380E-01
RMM:   2    -0.653141517809E+03   -0.12982E-01   -0.72642E-02 10242   0.729E-01    0.900E-01
RMM:   3    -0.653130848123E+03    0.10670E-01   -0.11189E-02 10446   0.301E-01    0.170E-01
RMM:   4    -0.653130792271E+03    0.55852E-04   -0.24565E-03 12480   0.112E-01    0.203E-01
RMM:   5    -0.653130427023E+03    0.36525E-03   -0.82257E-04 11033   0.640E-02    0.955E-02
RMM:   6    -0.653130368391E+03    0.58632E-04   -0.46200E-04 11592   0.500E-02    0.708E-02
RMM:   7    -0.653130360473E+03    0.79177E-05   -0.25652E-04 10506   0.362E-02    0.638E-02
RMM:   8    -0.653130320300E+03    0.40173E-04   -0.91458E-05  9670   0.235E-02    0.159E-02
RMM:   9    -0.653130321265E+03   -0.96492E-06   -0.23047E-05  5981   0.127E-02
  30 F= -.65313032E+03 E0= -.65307288E+03  d E =-.916993E-04
 trial-energy change:   -0.000092  1 .order   -0.000059   -0.000664    0.000546
 step:   0.6412(harm=  0.6412)  dis= 0.00126  next Energy=  -653.130412 (dE=-0.182E-03)
 bond charge predicted
       N       E                     dE             d eps       ncg     rms          rms(c)
DAV:   1    -0.653130114618E+03    0.20568E-03   -0.66826E-02  8304   0.106E+00    0.173E-01
RMM:   2    -0.653132703774E+03   -0.25892E-02   -0.14758E-02 10191   0.329E-01    0.400E-01
RMM:   3    -0.653130559815E+03    0.21440E-02   -0.22606E-03 10279   0.135E-01    0.721E-02
RMM:   4    -0.653130546795E+03    0.13021E-04   -0.48503E-04 11400   0.501E-02    0.888E-02
RMM:   5    -0.653130476267E+03    0.70528E-04   -0.16367E-04  9479   0.304E-02    0.459E-02
RMM:   6    -0.653130460178E+03    0.16089E-04   -0.87558E-05  8686   0.236E-02    0.322E-02
RMM:   7    -0.653130455800E+03    0.43781E-05   -0.47687E-05  6456   0.185E-02
  31 F= -.65313046E+03 E0= -.65307298E+03  d E =-.226234E-03
 curvature:  -0.68 expect dE=-0.242E-03 dE for cont linesearch -0.201E-05
 trial: gam= 0.36933 g(F)=  0.258E-03 g(S)=  0.990E-04 ort = 0.597E-04 (trialstep = 0.106E+01)
 search vector abs. value=  0.565E-03
 bond charge predicted
       N       E                     dE             d eps       ncg     rms          rms(c)
DAV:   1    -0.653129329622E+03    0.11306E-02   -0.12743E-01  8064   0.142E+00    0.108E-01
RMM:   2    -0.653131127086E+03   -0.17975E-02   -0.16952E-02 11486   0.355E-01    0.183E-01
RMM:   3    -0.653130714452E+03    0.41263E-03   -0.19695E-03 11208   0.131E-01    0.582E-02
RMM:   4    -0.653130697069E+03    0.17383E-04   -0.38142E-04 11669   0.409E-02    0.513E-02
RMM:   5    -0.653130675777E+03    0.21292E-04   -0.11491E-04 10011   0.238E-02    0.337E-02
RMM:   6    -0.653130670203E+03    0.55733E-05   -0.72861E-05  9603   0.164E-02
  32 F= -.65313067E+03 E0= -.65307320E+03  d E =-.214403E-03
 trial-energy change:   -0.000214  1 .order   -0.000212   -0.000402   -0.000022
 step:   1.1239(harm=  1.1239)  dis= 0.00122  next Energy=  -653.130669 (dE=-0.213E-03)
 bond charge predicted
       N       E                     dE             d eps       ncg     rms          rms(c)
DAV:   1    -0.653130659094E+03    0.16682E-04   -0.44266E-04 10008   0.835E-02    0.184E-02
RMM:   2    -0.653130708632E+03   -0.49538E-04   -0.16942E-04 10109   0.297E-02    0.694E-02
RMM:   3    -0.653130660736E+03    0.47896E-04   -0.41566E-05  6320   0.181E-02    0.831E-03
RMM:   4    -0.653130660002E+03    0.73449E-06   -0.76743E-06  4387   0.858E-03
  33 F= -.65313066E+03 E0= -.65307319E+03  d E =-.204202E-03
 curvature:  -0.84 expect dE=-0.117E-03 dE for cont linesearch -0.320E-06
 trial: gam= 0.44436 g(F)=  0.138E-03 g(S)=  0.222E-05 ort =-0.147E-04 (trialstep = 0.107E+01)
 search vector abs. value=  0.238E-03
 bond charge predicted
       N       E                     dE             d eps       ncg     rms          rms(c)
DAV:   1    -0.653130095865E+03    0.56487E-03   -0.56141E-02  8256   0.956E-01    0.477E-02
RMM:   2    -0.653130781392E+03   -0.68553E-03   -0.71549E-03 11387   0.223E-01    0.496E-02
RMM:   3    -0.653130781235E+03    0.15694E-06   -0.71922E-04 10746   0.753E-02    0.492E-02
RMM:   4    -0.653130765499E+03    0.15736E-04   -0.11885E-04  9894   0.247E-02    0.221E-02
RMM:   5    -0.653130761894E+03    0.36057E-05   -0.24973E-05  6451   0.149E-02
  34 F= -.65313076E+03 E0= -.65307328E+03  d E =-.101892E-03
 trial-energy change:   -0.000102  1 .order   -0.000090   -0.000143   -0.000037
 step:   1.4541(harm=  1.4541)  dis= 0.00108  next Energy=  -653.130757 (dE=-0.970E-04)
 reached required accuracy - stopping structural energy minimisation
