<?xml version="1.0" encoding="ISO-8859-1"?>
<modeling>
 <generator>
  <i name="program" type="string">vasp </i>
  <i name="version" type="string">5.4.4.18Apr17-6-g9f103f2a35  </i>
  <i name="subversion" type="string">(build Oct 18 2021 20:38:43) complex            parallel </i>
  <i name="platform" type="string">LinuxIFC </i>
  <i name="date" type="string">2024 05 30 </i>
  <i name="time" type="string">10:48:37 </i>
 </generator>
 <incar>
  <i type="string" name="SYSTEM">HECN</i>
  <i type="int" name="ISTART">     0</i>
  <i type="string" name="PREC">normal</i>
  <i type="string" name="ALGO">Fast</i>
  <i type="int" name="ICHARG">     2</i>
  <i type="int" name="NELM">    60</i>
  <i type="int" name="IBRION">     2</i>
  <i name="EDIFF">      0.00001000</i>
  <i name="EDIFFG">     -0.01000000</i>
  <i type="int" name="NSW">   100</i>
  <i type="int" name="ISIF">     3</i>
  <i name="ENCUT">    400.00000000</i>
  <i name="POTIM">      0.50000000</i>
  <i type="logical" name="LREAL"> F  </i>
  <i type="int" name="ISMEAR">     0</i>
  <i name="SIGMA">      0.10000000</i>
  <i type="logical" name="LWAVE"> F  </i>
  <i type="logical" name="LCHARG"> F  </i>
  <v type="int" name="KPOINT_BSE">    -1     0     0     0</v>
  <i type="int" name="NELM">    60</i>
 </incar>
 <structure name="primitive_cell" >
  <crystal>
   <varray name="basis" >
    <v>      11.23999977       0.00000000       0.00000000 </v>
    <v>       0.00000000      11.23999977       0.00000000 </v>
    <v>       0.00000000       0.00000000      11.23999977 </v>
   </varray>
   <i name="volume">   1420.03453724 </i>
   <varray name="rec_basis" >
    <v>       0.08896797       0.00000000       0.00000000 </v>
    <v>       0.00000000       0.08896797       0.00000000 </v>
    <v>       0.00000000       0.00000000       0.08896797 </v>
   </varray>
  </crystal>
  <varray name="positions" >
   <v>       0.00000000       0.00000000       0.00000000 </v>
   <v>      -0.24999996       0.00000000       0.00000000 </v>
   <v>       0.00000000       0.00000000      -0.24999996 </v>
   <v>       0.00000000      -0.24999996       0.00000000 </v>
   <v>       0.25000000       0.00000000       0.00000000 </v>
   <v>       0.00000000       0.25000000       0.00000000 </v>
   <v>       0.00000000       0.00000000       0.25000000 </v>
   <v>      -0.24999996      -0.24999996       0.00000000 </v>
   <v>       0.00000000      -0.24999996      -0.24999996 </v>
   <v>      -0.24999996       0.00000000      -0.24999996 </v>
   <v>       0.00000000       0.25000000      -0.24999996 </v>
   <v>      -0.24999996       0.00000000       0.25000000 </v>
   <v>      -0.24999996       0.25000000       0.00000000 </v>
   <v>       0.25000000      -0.24999996       0.00000000 </v>
   <v>       0.25000000       0.00000000      -0.24999996 </v>
   <v>       0.00000000      -0.24999996       0.25000000 </v>
   <v>       0.25000000       0.00000000       0.25000000 </v>
   <v>       0.00000000       0.25000000       0.25000000 </v>
   <v>       0.25000000       0.25000000       0.00000000 </v>
   <v>      -0.24999996      -0.24999996      -0.24999996 </v>
   <v>      -0.24999996       0.25000000      -0.24999996 </v>
   <v>       0.25000000      -0.24999996      -0.24999996 </v>
   <v>      -0.24999996      -0.24999996       0.25000000 </v>
   <v>      -0.24999996       0.25000000       0.25000000 </v>
   <v>       0.25000000      -0.24999996       0.25000000 </v>
   <v>       0.25000000       0.25000000      -0.24999996 </v>
   <v>       0.25000000       0.25000000       0.25000000 </v>
   <v>      -0.50000000       0.00000000       0.00000000 </v>
   <v>       0.00000000      -0.50000000       0.00000000 </v>
   <v>       0.00000000       0.00000000      -0.50000000 </v>
   <v>      -0.50000000      -0.24999996       0.00000000 </v>
   <v>      -0.24999996       0.00000000      -0.50000000 </v>
   <v>      -0.50000000       0.00000000      -0.24999996 </v>
   <v>      -0.24999996      -0.50000000       0.00000000 </v>
   <v>       0.00000000      -0.24999996      -0.50000000 </v>
   <v>       0.00000000      -0.50000000      -0.24999996 </v>
   <v>      -0.50000000       0.00000000       0.25000000 </v>
   <v>       0.00000000      -0.50000000       0.25000000 </v>
   <v>      -0.50000000       0.25000000       0.00000000 </v>
   <v>       0.25000000      -0.50000000       0.00000000 </v>
   <v>       0.25000000       0.00000000      -0.50000000 </v>
   <v>       0.00000000       0.25000000      -0.50000000 </v>
   <v>      -0.24999996      -0.24999996      -0.50000000 </v>
   <v>      -0.50000000      -0.24999996      -0.24999996 </v>
   <v>      -0.24999996      -0.50000000      -0.24999996 </v>
   <v>      -0.50000000       0.25000000      -0.24999996 </v>
   <v>      -0.24999996       0.25000000      -0.50000000 </v>
   <v>       0.25000000      -0.50000000      -0.24999996 </v>
   <v>       0.25000000      -0.24999996      -0.50000000 </v>
   <v>      -0.50000000      -0.24999996       0.25000000 </v>
   <v>      -0.24999996      -0.50000000       0.25000000 </v>
   <v>       0.25000000      -0.50000000       0.25000000 </v>
   <v>      -0.50000000       0.25000000       0.25000000 </v>
   <v>       0.25000000       0.25000000      -0.50000000 </v>
   <v>      -0.50000000      -0.50000000       0.00000000 </v>
   <v>       0.00000000      -0.50000000      -0.50000000 </v>
   <v>      -0.50000000       0.00000000      -0.50000000 </v>
   <v>      -0.24999996      -0.50000000      -0.50000000 </v>
   <v>      -0.50000000      -0.24999996      -0.50000000 </v>
   <v>      -0.50000000      -0.50000000      -0.24999996 </v>
   <v>      -0.50000000       0.25000000      -0.50000000 </v>
   <v>      -0.50000000      -0.50000000       0.25000000 </v>
   <v>       0.25000000      -0.50000000      -0.50000000 </v>
   <v>      -0.50000000      -0.50000000      -0.50000000 </v>
  </varray>
 </structure>
 <varray name="primitive_index" >
  <v type="int" >        1 </v>
  <v type="int" >       25 </v>
  <v type="int" >       29 </v>
  <v type="int" >       38 </v>
  <v type="int" >       22 </v>
  <v type="int" >       23 </v>
  <v type="int" >       34 </v>
  <v type="int" >        9 </v>
  <v type="int" >       12 </v>
  <v type="int" >       58 </v>
  <v type="int" >       10 </v>
  <v type="int" >       16 </v>
  <v type="int" >       17 </v>
  <v type="int" >       18 </v>
  <v type="int" >       56 </v>
  <v type="int" >       59 </v>
  <v type="int" >        2 </v>
  <v type="int" >        8 </v>
  <v type="int" >       14 </v>
  <v type="int" >       49 </v>
  <v type="int" >       30 </v>
  <v type="int" >       45 </v>
  <v type="int" >       39 </v>
  <v type="int" >       24 </v>
  <v type="int" >       36 </v>
  <v type="int" >       42 </v>
  <v type="int" >       21 </v>
  <v type="int" >       53 </v>
  <v type="int" >       54 </v>
  <v type="int" >       61 </v>
  <v type="int" >       28 </v>
  <v type="int" >       31 </v>
  <v type="int" >       33 </v>
  <v type="int" >       40 </v>
  <v type="int" >       47 </v>
  <v type="int" >       48 </v>
  <v type="int" >       26 </v>
  <v type="int" >       27 </v>
  <v type="int" >       35 </v>
  <v type="int" >       37 </v>
  <v type="int" >       43 </v>
  <v type="int" >       44 </v>
  <v type="int" >       64 </v>
  <v type="int" >        7 </v>
  <v type="int" >       63 </v>
  <v type="int" >        5 </v>
  <v type="int" >       11 </v>
  <v type="int" >       13 </v>
  <v type="int" >       20 </v>
  <v type="int" >       55 </v>
  <v type="int" >       60 </v>
  <v type="int" >        3 </v>
  <v type="int" >       15 </v>
  <v type="int" >       19 </v>
  <v type="int" >        4 </v>
  <v type="int" >        6 </v>
  <v type="int" >       57 </v>
  <v type="int" >       50 </v>
  <v type="int" >       51 </v>
  <v type="int" >       52 </v>
  <v type="int" >       32 </v>
  <v type="int" >       41 </v>
  <v type="int" >       46 </v>
  <v type="int" >       62 </v>
 </varray>
 <kpoints>
  <generation param="Gamma">
   <v type="int" name="divisions">       3        3        3 </v>
   <v name="usershift">      0.00000000       0.00000000       0.00000000 </v>
   <v name="genvec1">      0.33333333       0.00000000       0.00000000 </v>
   <v name="genvec2">      0.00000000       0.33333333       0.00000000 </v>
   <v name="genvec3">      0.00000000       0.00000000       0.33333333 </v>
   <v name="shift">      0.00000000       0.00000000       0.00000000 </v>
  </generation>
  <varray name="kpointlist" >
   <v>       0.00000000       0.00000000       0.00000000 </v>
   <v>       0.33333333       0.00000000       0.00000000 </v>
   <v>       0.00000000       0.33333333       0.00000000 </v>
   <v>       0.33333333       0.33333333       0.00000000 </v>
   <v>      -0.33333333       0.33333333       0.00000000 </v>
   <v>       0.00000000       0.00000000       0.33333333 </v>
   <v>       0.33333333       0.00000000       0.33333333 </v>
   <v>      -0.33333333       0.00000000       0.33333333 </v>
   <v>       0.00000000       0.33333333       0.33333333 </v>
   <v>       0.33333333       0.33333333       0.33333333 </v>
   <v>      -0.33333333       0.33333333       0.33333333 </v>
   <v>       0.00000000      -0.33333333       0.33333333 </v>
   <v>       0.33333333      -0.33333333       0.33333333 </v>
   <v>      -0.33333333      -0.33333333       0.33333333 </v>
  </varray>
  <varray name="weights" >
   <v>       0.03703704 </v>
   <v>       0.07407407 </v>
   <v>       0.07407407 </v>
   <v>       0.07407407 </v>
   <v>       0.07407407 </v>
   <v>       0.07407407 </v>
   <v>       0.07407407 </v>
   <v>       0.07407407 </v>
   <v>       0.07407407 </v>
   <v>       0.07407407 </v>
   <v>       0.07407407 </v>
   <v>       0.07407407 </v>
   <v>       0.07407407 </v>
   <v>       0.07407407 </v>
  </varray>
 </kpoints>
 <parameters>
  <separator name="general" >
   <i type="string" name="SYSTEM">HECN</i>
   <i type="logical" name="LCOMPAT"> F  </i>
  </separator>
  <separator name="electronic" >
   <i type="string" name="PREC">normal</i>
   <i name="ENMAX">    400.00000000</i>
   <i name="ENAUG">    644.87300000</i>
   <i name="EDIFF">      0.00001000</i>
   <i type="int" name="IALGO">    68</i>
   <i type="int" name="IWAVPR">    11</i>
   <i type="int" name="NBANDS">   288</i>
   <i name="NELECT">    475.00000000</i>
   <i type="int" name="TURBO">     0</i>
   <i type="int" name="IRESTART">     0</i>
   <i type="int" name="NREBOOT">     0</i>
   <i type="int" name="NMIN">     0</i>
   <i name="EREF">      0.00000000</i>
   <separator name="electronic smearing" >
    <i type="int" name="ISMEAR">     0</i>
    <i name="SIGMA">      0.10000000</i>
    <i name="KSPACING">      0.50000000</i>
    <i type="logical" name="KGAMMA"> T  </i>
   </separator>
   <separator name="electronic projectors" >
    <i type="logical" name="LREAL"> F  </i>
    <v name="ROPT">      0.00000000      0.00000000      0.00000000      0.00000000      0.00000000      0.00000000      0.00000000</v>
    <i type="int" name="LMAXPAW">  -100</i>
    <i type="int" name="LMAXMIX">     2</i>
    <i type="logical" name="NLSPLINE"> F  </i>
   </separator>
   <separator name="electronic startup" >
    <i type="int" name="ISTART">     0</i>
    <i type="int" name="ICHARG">     2</i>
    <i type="int" name="INIWAV">     1</i>
   </separator>
   <separator name="electronic spin" >
    <i type="int" name="ISPIN">     1</i>
    <i type="logical" name="LNONCOLLINEAR"> F  </i>
    <v name="MAGMOM">      1.00000000      1.00000000      1.00000000      1.00000000      1.00000000      1.00000000      1.00000000      1.00000000      1.00000000      1.00000000      1.00000000      1.00000000      1.00000000      1.00000000      1.00000000      1.00000000      1.00000000      1.00000000      1.00000000      1.00000000
      1.00000000      1.00000000      1.00000000      1.00000000      1.00000000      1.00000000      1.00000000      1.00000000      1.00000000      1.00000000      1.00000000      1.00000000      1.00000000      1.00000000      1.00000000      1.00000000      1.00000000      1.00000000      1.00000000      1.00000000
      1.00000000      1.00000000      1.00000000      1.00000000      1.00000000      1.00000000      1.00000000      1.00000000      1.00000000      1.00000000      1.00000000      1.00000000      1.00000000      1.00000000      1.00000000      1.00000000      1.00000000      1.00000000      1.00000000      1.00000000
      1.00000000      1.00000000      1.00000000      1.00000000</v>
    <i name="NUPDOWN">     -1.00000000</i>
    <i type="logical" name="LSORBIT"> F  </i>
    <v name="SAXIS">      0.00000000      0.00000000      1.00000000</v>
    <i type="logical" name="LSPIRAL"> F  </i>
    <v name="QSPIRAL">      0.00000000      0.00000000      0.00000000</v>
    <i type="logical" name="LZEROZ"> F  </i>
   </separator>
   <separator name="electronic exchange-correlation" >
    <i type="logical" name="LASPH"> F  </i>
    <i type="logical" name="LMETAGGA"> F  </i>
   </separator>
   <separator name="electronic convergence" >
    <i type="int" name="NELM">    60</i>
    <i type="int" name="NELMDL">    -5</i>
    <i type="int" name="NELMIN">     2</i>
    <i name="ENINI">    400.00000000</i>
    <separator name="electronic convergence detail" >
     <i type="logical" name="LDIAG"> T  </i>
     <i type="logical" name="LSUBROT"> F  </i>
     <i name="WEIMIN">      0.00100000</i>
     <i name="EBREAK">      0.00000001</i>
     <i name="DEPER">      0.30000000</i>
     <i type="int" name="NRMM">     4</i>
     <i name="TIME">      0.40000000</i>
    </separator>
   </separator>
   <separator name="electronic mixer" >
    <i name="AMIX">      0.40000000</i>
    <i name="BMIX">      1.00000000</i>
    <i name="AMIN">      0.10000000</i>
    <i name="AMIX_MAG">      1.60000000</i>
    <i name="BMIX_MAG">      1.00000000</i>
    <separator name="electronic mixer details" >
     <i type="int" name="IMIX">     4</i>
     <i type="logical" name="MIXFIRST"> F  </i>
     <i type="int" name="MAXMIX">   -45</i>
     <i name="WC">    100.00000000</i>
     <i type="int" name="INIMIX">     1</i>
     <i type="int" name="MIXPRE">     1</i>
     <i type="int" name="MREMOVE">     5</i>
    </separator>
   </separator>
   <separator name="electronic dipolcorrection" >
    <i type="logical" name="LDIPOL"> F  </i>
    <i type="logical" name="LMONO"> F  </i>
    <i type="int" name="IDIPOL">     0</i>
    <i name="EPSILON">      1.00000000</i>
    <v name="DIPOL">   -100.00000000   -100.00000000   -100.00000000</v>
    <i name="EFIELD">      0.00000000</i>
   </separator>
  </separator>
  <separator name="grids" >
   <i type="int" name="NGX">    56</i>
   <i type="int" name="NGY">    56</i>
   <i type="int" name="NGZ">    56</i>
   <i type="int" name="NGXF">   112</i>
   <i type="int" name="NGYF">   112</i>
   <i type="int" name="NGZF">   112</i>
   <i type="logical" name="ADDGRID"> F  </i>
  </separator>
  <separator name="ionic" >
   <i type="int" name="NSW">   100</i>
   <i type="int" name="IBRION">     2</i>
   <i type="int" name="MDALGO">     0</i>
   <i type="int" name="ISIF">     3</i>
   <i name="PSTRESS">      0.00000000</i>
   <i name="EDIFFG">     -0.01000000</i>
   <i type="int" name="NFREE">     1</i>
   <i name="POTIM">      0.50000000</i>
   <i name="SMASS">     -3.00000000</i>
   <i name="SCALEE">      1.00000000</i>
  </separator>
  <separator name="ionic md" >
   <i name="TEBEG">      0.00010000</i>
   <i name="TEEND">      0.00010000</i>
   <i type="int" name="NBLOCK">     1</i>
   <i type="int" name="KBLOCK">   100</i>
   <i type="int" name="NPACO">   256</i>
   <i name="APACO">     16.00000000</i>
  </separator>
  <separator name="symmetry" >
   <i type="int" name="ISYM">     2</i>
   <i name="SYMPREC">      0.00001000</i>
  </separator>
  <separator name="dos" >
   <i type="int" name="LORBIT">     0</i>
   <v name="RWIGS">     -1.00000000     -1.00000000     -1.00000000     -1.00000000     -1.00000000     -1.00000000     -1.00000000</v>
   <i type="int" name="NEDOS">   301</i>
   <i name="EMIN">     10.00000000</i>
   <i name="EMAX">    -10.00000000</i>
   <i name="EFERMI">      0.00000000</i>
  </separator>
  <separator name="writing" >
   <i type="int" name="NWRITE">     2</i>
   <i type="logical" name="LWAVE"> F  </i>
   <i type="logical" name="LDOWNSAMPLE"> F  </i>
   <i type="logical" name="LCHARG"> F  </i>
   <i type="logical" name="LPARD"> F  </i>
   <i type="logical" name="LVTOT"> F  </i>
   <i type="logical" name="LVHAR"> F  </i>
   <i type="logical" name="LELF"> F  </i>
   <i type="logical" name="LOPTICS"> F  </i>
   <v name="STM">      0.00000000      0.00000000      0.00000000      0.00000000      0.00000000      0.00000000      0.00000000</v>
  </separator>
  <separator name="performance" >
   <i type="int" name="NPAR">    24</i>
   <i type="int" name="NSIM">     4</i>
   <i type="int" name="NBLK">    -1</i>
   <i type="logical" name="LPLANE"> T  </i>
   <i type="logical" name="LSCALAPACK"> T  </i>
   <i type="logical" name="LSCAAWARE"> F  </i>
   <i type="logical" name="LSCALU"> F  </i>
   <i type="logical" name="LASYNC"> F  </i>
   <i type="logical" name="LORBITALREAL"> F  </i>
  </separator>
  <separator name="miscellaneous" >
   <i type="int" name="IDIOT">     3</i>
   <i type="int" name="ISPECIAL">     0</i>
   <i type="logical" name="LMUSIC"> F  </i>
   <v name="POMASS">     47.88000000    180.94800000    178.49000000     14.00100000     12.01100000     95.94000000     50.94100000</v>
   <v name="DARWINR">      0.00000000      0.00000000      0.00000000      0.00000000      0.00000000      0.00000000      0.00000000</v>
   <v name="DARWINV">      1.00000000      1.00000000      1.00000000      1.00000000      1.00000000      1.00000000      1.00000000</v>
   <i type="logical" name="LCORR"> T  </i>
  </separator>
  <i type="logical" name="GGA_COMPAT"> T  </i>
  <i type="logical" name="LBERRY"> F  </i>
  <i type="int" name="ICORELEVEL">     0</i>
  <i type="logical" name="LDAU"> F  </i>
  <i type="int" name="I_CONSTRAINED_M">     0</i>
  <separator name="electronic exchange-correlation" >
   <i type="string" name="GGA">--</i>
   <i type="int" name="VOSKOWN">     0</i>
   <i type="logical" name="LHFCALC"> F  </i>
   <i type="string" name="PRECFOCK"></i>
   <i type="logical" name="LSYMGRAD"> F  </i>
   <i type="logical" name="LHFONE"> F  </i>
   <i type="logical" name="LRHFCALC"> F  </i>
   <i type="logical" name="LTHOMAS"> F  </i>
   <i type="logical" name="LMODELHF"> F  </i>
   <i name="ENCUT4O">     -1.00000000</i>
   <i type="int" name="EXXOEP">     0</i>
   <i type="int" name="FOURORBIT">     0</i>
   <i name="AEXX">      0.00000000</i>
   <i name="HFALPHA">      0.00000000</i>
   <i name="MCALPHA">      0.00000000</i>
   <i name="ALDAX">      1.00000000</i>
   <i name="AGGAX">      1.00000000</i>
   <i name="ALDAC">      1.00000000</i>
   <i name="AGGAC">      1.00000000</i>
   <i type="int" name="NKREDX">     1</i>
   <i type="int" name="NKREDY">     1</i>
   <i type="int" name="NKREDZ">     1</i>
   <i type="logical" name="SHIFTRED"> F  </i>
   <i type="logical" name="ODDONLY"> F  </i>
   <i type="logical" name="EVENONLY"> F  </i>
   <i type="int" name="LMAXFOCK">     0</i>
   <i type="int" name="NMAXFOCKAE">     0</i>
   <i type="logical" name="LFOCKAEDFT"> F  </i>
   <i name="HFSCREEN">      0.00000000</i>
   <i name="HFSCREENC">      0.00000000</i>
   <i type="int" name="NBANDSGWLOW">     0</i>
  </separator>
  <separator name="vdW DFT" >
   <i type="logical" name="LUSE_VDW"> F  </i>
   <i name="Zab_VDW">     -0.84910000</i>
   <i name="PARAM1">      0.12340000</i>
   <i name="PARAM2">      1.00000000</i>
   <i name="PARAM3">      0.00000000</i>
  </separator>
  <separator name="model GW" >
   <i type="int" name="MODEL_GW">     0</i>
   <i name="MODEL_EPS0">     13.31282379</i>
   <i name="MODEL_ALPHA">      1.00000000</i>
  </separator>
  <separator name="linear response parameters" >
   <i type="logical" name="LEPSILON"> F  </i>
   <i type="logical" name="LRPA"> F  </i>
   <i type="logical" name="LNABLA"> F  </i>
   <i type="logical" name="LVEL"> F  </i>
   <i type="int" name="KINTER">     0</i>
   <i name="CSHIFT">      0.10000000</i>
   <i name="OMEGAMAX">     -1.00000000</i>
   <i name="DEG_THRESHOLD">      0.00200000</i>
   <i name="RTIME">     -0.10000000</i>
   <i name="WPLASMAI">      0.00000000</i>
   <v name="DFIELD">      0.00000000      0.00000000      0.00000000</v>
   <v name="WPLASMA">      0.00000000      0.00000000      0.00000000      0.00000000      0.00000000      0.00000000      0.00000000      0.00000000      0.00000000</v>
  </separator>
  <separator name="orbital magnetization" >
   <i type="logical" name="NUCIND"> F  </i>
   <v name="MAGPOS">      0.00000000      0.00000000      0.00000000</v>
   <i type="logical" name="LNICSALL"> T  </i>
   <i type="logical" name="ORBITALMAG"> F  </i>
   <i type="logical" name="LMAGBLOCH"> F  </i>
   <i type="logical" name="LCHIMAG"> F  </i>
   <i type="logical" name="LGAUGE"> T  </i>
   <i type="int" name="MAGATOM">     0</i>
   <v name="MAGDIPOL">      0.00000000      0.00000000      0.00000000</v>
   <v name="AVECCONST">      0.00000000      0.00000000      0.00000000</v>
  </separator>
  <separator name="response functions" >
   <i type="logical" name="LADDER"> F  </i>
   <i type="logical" name="LRPAFORCE"> F  </i>
   <i type="logical" name="LFXC"> F  </i>
   <i type="logical" name="LHARTREE"> T  </i>
   <i type="int" name="IBSE">     0</i>
   <v type="int" name="KPOINT">    -1     0     0     0</v>
   <i type="logical" name="LTCTE"> F  </i>
   <i type="logical" name="LTETE"> F  </i>
   <i type="logical" name="LTRIPLET"> F  </i>
   <i type="logical" name="LFXCEPS"> F  </i>
   <i type="logical" name="LFXHEG"> F  </i>
   <i type="int" name="NATURALO">     2</i>
   <i type="logical" name="L2ORDER"> F  </i>
   <i type="logical" name="LMP2LT"> F  </i>
   <i type="logical" name="LUSEW"> F  </i>
   <i name="ENCUTGW">     -2.00000000</i>
   <i name="ENCUTGWSOFT">     -2.00000000</i>
   <i name="ENCUTLF">     -1.00000000</i>
   <i type="int" name="LMAXMP2">    -1</i>
   <i name="SCISSOR">      0.00000000</i>
   <i type="int" name="NOMEGA">     0</i>
   <i type="int" name="NOMEGAR">     0</i>
   <i type="int" name="NBANDSGW">    -1</i>
   <i type="int" name="NBANDSO">    -1</i>
   <i type="int" name="NBANDSV">    -1</i>
   <i type="int" name="NELM">    60</i>
   <i type="int" name="NELMHF">     1</i>
   <i type="int" name="DIM">     3</i>
   <i type="int" name="ANTIRES">     0</i>
   <i name="OMEGAMAX">    -30.00000000</i>
   <i name="OMEGAMIN">    -30.00000000</i>
   <i name="OMEGATL">   -200.00000000</i>
   <i type="int" name="OMEGAGRID">   140</i>
   <i name="CSHIFT">     -0.10000000</i>
   <i type="logical" name="SELFENERGY"> F  </i>
   <i type="logical" name="LSPECTRAL"> F  </i>
   <i type="logical" name="LSPECTRALGW"> F  </i>
   <i type="logical" name="LSINGLES"> F  </i>
   <i type="logical" name="LFERMIGW"> F  </i>
   <i type="logical" name="ODDONLYGW"> F  </i>
   <i type="logical" name="EVENONLYGW"> F  </i>
   <i type="int" name="NKREDLFX">     1</i>
   <i type="int" name="NKREDLFY">     1</i>
   <i type="int" name="NKREDLFZ">     1</i>
   <i type="int" name="MAXMEM">  2800</i>
   <i type="int" name="TELESCOPE">     0</i>
   <i type="int" name="TAUPAR">     1</i>
   <i type="int" name="OMEGAPAR">    -1</i>
   <i name="LAMBDA">      1.00000000</i>
  </separator>
  <separator name="External order field" >
   <i name="OFIELD_KAPPA">      0.00000000</i>
   <v name="OFIELD_K">      0.00000000      0.00000000      0.00000000</v>
   <i name="OFIELD_Q6_NEAR">      0.00000000</i>
   <i name="OFIELD_Q6_FAR">      0.00000000</i>
   <i name="OFIELD_A">      0.00000000</i>
  </separator>
 </parameters>
 <atominfo>
  <atoms>      64 </atoms>
  <types>       7 </types>
  <array name="atoms" >
   <dimension dim="1">ion</dimension>
   <field type="string">element</field>
   <field type="int">atomtype</field>
   <set>
    <rc><c>Ti</c><c>   1</c></rc>
    <rc><c>Ti</c><c>   1</c></rc>
    <rc><c>Ti</c><c>   1</c></rc>
    <rc><c>Ti</c><c>   1</c></rc>
    <rc><c>Ti</c><c>   1</c></rc>
    <rc><c>Ti</c><c>   1</c></rc>
    <rc><c>Ti</c><c>   1</c></rc>
    <rc><c>Ta</c><c>   2</c></rc>
    <rc><c>Ta</c><c>   2</c></rc>
    <rc><c>Ta</c><c>   2</c></rc>
    <rc><c>Ta</c><c>   2</c></rc>
    <rc><c>Ta</c><c>   2</c></rc>
    <rc><c>Ta</c><c>   2</c></rc>
    <rc><c>Hf</c><c>   3</c></rc>
    <rc><c>Hf</c><c>   3</c></rc>
    <rc><c>Hf</c><c>   3</c></rc>
    <rc><c>Hf</c><c>   3</c></rc>
    <rc><c>Hf</c><c>   3</c></rc>
    <rc><c>Hf</c><c>   3</c></rc>
    <rc><c>Hf</c><c>   3</c></rc>
    <rc><c>N </c><c>   4</c></rc>
    <rc><c>N </c><c>   4</c></rc>
    <rc><c>N </c><c>   4</c></rc>
    <rc><c>N </c><c>   4</c></rc>
    <rc><c>N </c><c>   4</c></rc>
    <rc><c>N </c><c>   4</c></rc>
    <rc><c>N </c><c>   4</c></rc>
    <rc><c>N </c><c>   4</c></rc>
    <rc><c>N </c><c>   4</c></rc>
    <rc><c>N </c><c>   4</c></rc>
    <rc><c>N </c><c>   4</c></rc>
    <rc><c>N </c><c>   4</c></rc>
    <rc><c>N </c><c>   4</c></rc>
    <rc><c>C </c><c>   5</c></rc>
    <rc><c>C </c><c>   5</c></rc>
    <rc><c>C </c><c>   5</c></rc>
    <rc><c>C </c><c>   5</c></rc>
    <rc><c>C </c><c>   5</c></rc>
    <rc><c>C </c><c>   5</c></rc>
    <rc><c>C </c><c>   5</c></rc>
    <rc><c>C </c><c>   5</c></rc>
    <rc><c>C </c><c>   5</c></rc>
    <rc><c>C </c><c>   5</c></rc>
    <rc><c>C </c><c>   5</c></rc>
    <rc><c>C </c><c>   5</c></rc>
    <rc><c>C </c><c>   5</c></rc>
    <rc><c>C </c><c>   5</c></rc>
    <rc><c>C </c><c>   5</c></rc>
    <rc><c>C </c><c>   5</c></rc>
    <rc><c>C </c><c>   5</c></rc>
    <rc><c>C </c><c>   5</c></rc>
    <rc><c>C </c><c>   5</c></rc>
    <rc><c>Mo</c><c>   6</c></rc>
    <rc><c>Mo</c><c>   6</c></rc>
    <rc><c>Mo</c><c>   6</c></rc>
    <rc><c>Mo</c><c>   6</c></rc>
    <rc><c>Mo</c><c>   6</c></rc>
    <rc><c>Mo</c><c>   6</c></rc>
    <rc><c>V </c><c>   7</c></rc>
    <rc><c>V </c><c>   7</c></rc>
    <rc><c>V </c><c>   7</c></rc>
    <rc><c>V </c><c>   7</c></rc>
    <rc><c>V </c><c>   7</c></rc>
    <rc><c>V </c><c>   7</c></rc>
   </set>
  </array>
  <array name="atomtypes" >
   <dimension dim="1">type</dimension>
   <field type="int">atomspertype</field>
   <field type="string">element</field>
   <field>mass</field>
   <field>valence</field>
   <field type="string">pseudopotential</field>
   <set>
    <rc><c>   7</c><c>Ti</c><c>     47.88000000</c><c>     12.00000000</c><c> PAW_PBE Ti_sv 07Sep2000                </c></rc>
    <rc><c>   6</c><c>Ta</c><c>    180.94800000</c><c>     11.00000000</c><c> PAW_PBE Ta_pv 07Sep2000                </c></rc>
    <rc><c>   7</c><c>Hf</c><c>    178.49000000</c><c>     10.00000000</c><c> PAW_PBE Hf_pv 06Sep2000                </c></rc>
    <rc><c>  13</c><c>N </c><c>     14.00100000</c><c>      5.00000000</c><c> PAW_PBE N 08Apr2002                    </c></rc>
    <rc><c>  19</c><c>C </c><c>     12.01100000</c><c>      4.00000000</c><c> PAW_PBE C 08Apr2002                    </c></rc>
    <rc><c>   6</c><c>Mo</c><c>     95.94000000</c><c>      6.00000000</c><c> PAW_PBE Mo 08Apr2002                   </c></rc>
    <rc><c>   6</c><c>V </c><c>     50.94100000</c><c>     13.00000000</c><c> PAW_PBE V_sv 07Sep2000                 </c></rc>
   </set>
  </array>
 </atominfo>
 <structure name="initialpos" >
  <crystal>
   <varray name="basis" >
    <v>      11.23999977       0.00000000       0.00000000 </v>
    <v>       0.00000000      11.23999977       0.00000000 </v>
    <v>       0.00000000       0.00000000      11.23999977 </v>
   </varray>
   <i name="volume">   1420.03453724 </i>
   <varray name="rec_basis" >
    <v>       0.08896797       0.00000000       0.00000000 </v>
    <v>       0.00000000       0.08896797       0.00000000 </v>
    <v>       0.00000000       0.00000000       0.08896797 </v>
   </varray>
  </crystal>
  <varray name="positions" >
   <v>       0.00000000       0.00000000       0.00000000 </v>
   <v>       0.25000000       0.00000000       0.25000000 </v>
   <v>       0.25000000       0.50000000       0.25000000 </v>
   <v>       0.50000000       0.50000000       0.00000000 </v>
   <v>       0.50000000       0.25000000       0.75000004 </v>
   <v>       0.00000000       0.50000000       0.50000000 </v>
   <v>       0.50000000       0.75000004       0.75000004 </v>
   <v>       0.00000000       0.25000000       0.25000000 </v>
   <v>       0.75000004       0.75000004       0.00000000 </v>
   <v>       0.00000000       0.25000000       0.75000004 </v>
   <v>       0.75000004       0.25000000       0.50000000 </v>
   <v>       0.00000000       0.75000004       0.75000004 </v>
   <v>       0.25000000       0.50000000       0.75000004 </v>
   <v>       0.25000000       0.25000000       0.00000000 </v>
   <v>       0.50000000       0.25000000       0.25000000 </v>
   <v>       0.75000004       0.00000000       0.25000000 </v>
   <v>       0.75000004       0.25000000       0.00000000 </v>
   <v>       0.25000000       0.75000004       0.00000000 </v>
   <v>       0.25000000       0.25000000       0.50000000 </v>
   <v>       0.25000000       0.75000004       0.50000000 </v>
   <v>       0.25000000       0.25000000       0.25000000 </v>
   <v>       0.25000000       0.00000000       0.00000000 </v>
   <v>       0.00000000       0.25000000       0.00000000 </v>
   <v>       0.75000004       0.25000000       0.25000000 </v>
   <v>       0.75000004       0.00000000       0.00000000 </v>
   <v>       0.50000000       0.00000000       0.25000000 </v>
   <v>       0.00000000       0.50000000       0.25000000 </v>
   <v>       0.50000000       0.75000004       0.00000000 </v>
   <v>       0.00000000       0.00000000       0.75000004 </v>
   <v>       0.75000004       0.25000000       0.75000004 </v>
   <v>       0.75000004       0.00000000       0.50000000 </v>
   <v>       0.50000000       0.25000000       0.50000000 </v>
   <v>       0.50000000       0.00000000       0.75000004 </v>
   <v>       0.00000000       0.00000000       0.25000000 </v>
   <v>       0.50000000       0.25000000       0.00000000 </v>
   <v>       0.25000000       0.75000004       0.25000000 </v>
   <v>       0.25000000       0.50000000       0.00000000 </v>
   <v>       0.00000000       0.75000004       0.00000000 </v>
   <v>       0.75000004       0.75000004       0.25000000 </v>
   <v>       0.75000004       0.50000000       0.00000000 </v>
   <v>       0.50000000       0.50000000       0.25000000 </v>
   <v>       0.25000000       0.25000000       0.75000004 </v>
   <v>       0.25000000       0.00000000       0.50000000 </v>
   <v>       0.00000000       0.25000000       0.50000000 </v>
   <v>       0.25000000       0.75000004       0.75000004 </v>
   <v>       0.25000000       0.50000000       0.50000000 </v>
   <v>       0.00000000       0.75000004       0.50000000 </v>
   <v>       0.00000000       0.50000000       0.75000004 </v>
   <v>       0.75000004       0.75000004       0.75000004 </v>
   <v>       0.75000004       0.50000000       0.50000000 </v>
   <v>       0.50000000       0.75000004       0.50000000 </v>
   <v>       0.50000000       0.50000000       0.75000004 </v>
   <v>       0.50000000       0.00000000       0.00000000 </v>
   <v>       0.00000000       0.50000000       0.00000000 </v>
   <v>       0.50000000       0.75000004       0.25000000 </v>
   <v>       0.25000000       0.00000000       0.75000004 </v>
   <v>       0.50000000       0.00000000       0.50000000 </v>
   <v>       0.75000004       0.00000000       0.75000004 </v>
   <v>       0.00000000       0.75000004       0.25000000 </v>
   <v>       0.75000004       0.50000000       0.25000000 </v>
   <v>       0.00000000       0.00000000       0.50000000 </v>
   <v>       0.50000000       0.50000000       0.50000000 </v>
   <v>       0.75000004       0.50000000       0.75000004 </v>
   <v>       0.75000004       0.75000004       0.50000000 </v>
  </varray>
 </structure>
 <calculation>
  <scstep>
   <time name="dav">   84.20   85.65</time>
   <time name="total">   84.26   85.71</time>
   <energy>
    <i name="alphaZ">   1911.78599439 </i>
    <i name="ewald"> -28583.54933356 </i>
    <i name="hartreedc"> -11612.70526247 </i>
    <i name="XCdc">   1203.94886645 </i>
    <i name="pawpsdc">  27175.30290995 </i>
    <i name="pawaedc"> -26553.13767003 </i>
    <i name="eentropy">     -0.11342179 </i>
    <i name="bandstr">  -2100.28592334 </i>
    <i name="atom">  42651.39698219 </i>
    <i name="e_fr_energy">   4092.64314178 </i>
    <i name="e_wo_entrp">   4092.75656357 </i>
    <i name="e_0_energy">   4092.69985268 </i>
   </energy>
  </scstep>
  <scstep>
   <time name="dav">   77.56   78.46</time>
   <time name="total">   77.56   78.46</time>
   <energy>
    <i name="e_fr_energy">    126.13943153 </i>
    <i name="e_wo_entrp">    126.44098303 </i>
    <i name="e_0_energy">    126.29020728 </i>
   </energy>
  </scstep>
  <scstep>
   <time name="dav">  107.24  108.26</time>
   <time name="total">  107.24  108.26</time>
   <energy>
    <i name="e_fr_energy">   -549.31344445 </i>
    <i name="e_wo_entrp">   -549.09518711 </i>
    <i name="e_0_energy">   -549.20431578 </i>
   </energy>
  </scstep>
  <scstep>
   <time name="dav">  105.78  110.40</time>
   <time name="total">  105.78  110.40</time>
   <energy>
    <i name="e_fr_energy">   -632.13123980 </i>
    <i name="e_wo_entrp">   -631.93012234 </i>
    <i name="e_0_energy">   -632.03068107 </i>
   </energy>
  </scstep>
  <scstep>
   <time name="dav">  114.93  115.10</time>
   <time name="total">  115.55  115.73</time>
   <energy>
    <i name="e_fr_energy">   -640.15619857 </i>
    <i name="e_wo_entrp">   -639.91506271 </i>
    <i name="e_0_energy">   -640.03563064 </i>
   </energy>
  </scstep>
  <scstep>
   <time name="diag">    2.65    2.65</time>
   <time name="diis">   80.02   80.13</time>
   <time name="orth">    0.62    0.62</time>
   <time name="total">   83.95   84.07</time>
   <energy>
    <i name="e_fr_energy">   -702.79663585 </i>
    <i name="e_wo_entrp">   -702.32168764 </i>
    <i name="e_0_energy">   -702.55916175 </i>
   </energy>
  </scstep>
  <scstep>
   <time name="diag">    2.59    2.67</time>
   <time name="diis">   81.05   84.86</time>
   <time name="orth">    0.63    0.64</time>
   <time name="total">   84.91   88.83</time>
   <energy>
    <i name="e_fr_energy">   -528.02129955 </i>
    <i name="e_wo_entrp">   -527.74972447 </i>
    <i name="e_0_energy">   -527.88551201 </i>
   </energy>
  </scstep>
  <scstep>
   <time name="diag">    2.60    2.67</time>
   <time name="diis">   67.59   71.00</time>
   <time name="orth">    0.61    0.62</time>
   <time name="total">   71.45   74.97</time>
   <energy>
    <i name="e_fr_energy">   -478.46154833 </i>
    <i name="e_wo_entrp">   -478.12580634 </i>
    <i name="e_0_energy">   -478.29367733 </i>
   </energy>
  </scstep>
  <scstep>
   <time name="diag">    2.60    2.66</time>
   <time name="diis">   82.85   86.37</time>
   <time name="orth">    0.62    0.62</time>
   <time name="total">   86.76   90.34</time>
   <energy>
    <i name="e_fr_energy">   -467.64423301 </i>
    <i name="e_wo_entrp">   -467.20260588 </i>
    <i name="e_0_energy">   -467.42341945 </i>
   </energy>
  </scstep>
  <scstep>
   <time name="diag">    2.63    2.65</time>
   <time name="diis">   84.96   85.13</time>
   <time name="orth">    0.62    0.62</time>
   <time name="total">   88.90   89.08</time>
   <energy>
    <i name="e_fr_energy">   -469.17664921 </i>
    <i name="e_wo_entrp">   -468.76779671 </i>
    <i name="e_0_energy">   -468.97222296 </i>
   </energy>
  </scstep>
  <scstep>
   <time name="diag">    2.61    2.61</time>
   <time name="diis">   83.96   84.16</time>
   <time name="orth">    0.61    0.61</time>
   <time name="total">   87.88   88.08</time>
   <energy>
    <i name="e_fr_energy">   -465.55322837 </i>
    <i name="e_wo_entrp">   -465.08571975 </i>
    <i name="e_0_energy">   -465.31947406 </i>
   </energy>
  </scstep>
  <scstep>
   <time name="diag">    2.61    2.62</time>
   <time name="diis">   85.14   85.44</time>
   <time name="orth">    0.61    0.61</time>
   <time name="total">   89.06   89.36</time>
   <energy>
    <i name="e_fr_energy">   -464.40829716 </i>
    <i name="e_wo_entrp">   -463.90220236 </i>
    <i name="e_0_energy">   -464.15524976 </i>
   </energy>
  </scstep>
  <scstep>
   <time name="diag">    2.61    2.61</time>
   <time name="diis">   83.88   84.04</time>
   <time name="orth">    0.61    0.61</time>
   <time name="total">   87.79   87.96</time>
   <energy>
    <i name="e_fr_energy">   -463.40677207 </i>
    <i name="e_wo_entrp">   -462.92839593 </i>
    <i name="e_0_energy">   -463.16758400 </i>
   </energy>
  </scstep>
  <scstep>
   <time name="diag">    2.61    2.61</time>
   <time name="diis">   85.32   85.55</time>
   <time name="orth">    0.61    0.61</time>
   <time name="total">   89.22   89.46</time>
   <energy>
    <i name="e_fr_energy">   -464.84170673 </i>
    <i name="e_wo_entrp">   -464.42252329 </i>
    <i name="e_0_energy">   -464.63211501 </i>
   </energy>
  </scstep>
  <scstep>
   <time name="diag">    2.62    2.62</time>
   <time name="diis">   84.37   84.47</time>
   <time name="orth">    0.63    0.63</time>
   <time name="total">   88.32   88.43</time>
   <energy>
    <i name="e_fr_energy">   -463.53434087 </i>
    <i name="e_wo_entrp">   -463.10891182 </i>
    <i name="e_0_energy">   -463.32162635 </i>
   </energy>
  </scstep>
  <scstep>
   <time name="diag">    2.62    2.62</time>
   <time name="diis">   83.44   83.91</time>
   <time name="orth">    0.61    0.61</time>
   <time name="total">   87.37   87.85</time>
   <energy>
    <i name="e_fr_energy">   -462.45278058 </i>
    <i name="e_wo_entrp">   -462.00541080 </i>
    <i name="e_0_energy">   -462.22909569 </i>
   </energy>
  </scstep>
  <scstep>
   <time name="diag">    2.65    2.66</time>
   <time name="diis">   84.17   84.38</time>
   <time name="orth">    0.61    0.61</time>
   <time name="total">   88.12   88.34</time>
   <energy>
    <i name="e_fr_energy">   -462.14422662 </i>
    <i name="e_wo_entrp">   -461.66709669 </i>
    <i name="e_0_energy">   -461.90566166 </i>
   </energy>
  </scstep>
  <scstep>
   <time name="diag">    2.62    2.62</time>
   <time name="diis">   83.88   84.19</time>
   <time name="orth">    0.61    0.61</time>
   <time name="total">   87.81   88.12</time>
   <energy>
    <i name="e_fr_energy">   -460.90475364 </i>
    <i name="e_wo_entrp">   -460.35215851 </i>
    <i name="e_0_energy">   -460.62845608 </i>
   </energy>
  </scstep>
  <scstep>
   <time name="diag">    2.63    2.64</time>
   <time name="diis">   85.02   85.18</time>
   <time name="orth">    0.61    0.61</time>
   <time name="total">   88.98   89.14</time>
   <energy>
    <i name="e_fr_energy">   -461.01899624 </i>
    <i name="e_wo_entrp">   -460.45699013 </i>
    <i name="e_0_energy">   -460.73799319 </i>
   </energy>
  </scstep>
  <scstep>
   <time name="diag">    2.61    2.62</time>
   <time name="diis">   86.77   87.15</time>
   <time name="orth">    0.63    0.64</time>
   <time name="total">   90.72   91.10</time>
   <energy>
    <i name="e_fr_energy">   -460.87028093 </i>
    <i name="e_wo_entrp">   -460.27608258 </i>
    <i name="e_0_energy">   -460.57318175 </i>
   </energy>
  </scstep>
  <scstep>
   <time name="diag">    2.64    2.64</time>
   <time name="diis">   85.35   85.63</time>
   <time name="orth">    0.61    0.61</time>
   <time name="total">   89.29   89.57</time>
   <energy>
    <i name="e_fr_energy">   -460.83777196 </i>
    <i name="e_wo_entrp">   -460.24421685 </i>
    <i name="e_0_energy">   -460.54099441 </i>
   </energy>
  </scstep>
  <scstep>
   <time name="diag">    2.62    2.62</time>
   <time name="diis">   84.36   84.57</time>
   <time name="orth">    0.62    0.62</time>
   <time name="total">   88.33   88.56</time>
   <energy>
    <i name="e_fr_energy">   -460.79336464 </i>
    <i name="e_wo_entrp">   -460.22391437 </i>
    <i name="e_0_energy">   -460.50863950 </i>
   </energy>
  </scstep>
  <scstep>
   <time name="diag">    2.68    2.69</time>
   <time name="diis">   84.39   84.60</time>
   <time name="orth">    0.61    0.61</time>
   <time name="total">   88.39   88.62</time>
   <energy>
    <i name="e_fr_energy">   -460.77421844 </i>
    <i name="e_wo_entrp">   -460.19494543 </i>
    <i name="e_0_energy">   -460.48458194 </i>
   </energy>
  </scstep>
  <scstep>
   <time name="diag">    2.63    2.63</time>
   <time name="diis">   86.88   87.21</time>
   <time name="orth">    0.63    0.63</time>
   <time name="total">   90.82   91.15</time>
   <energy>
    <i name="e_fr_energy">   -460.75415045 </i>
    <i name="e_wo_entrp">   -460.17896717 </i>
    <i name="e_0_energy">   -460.46655881 </i>
   </energy>
  </scstep>
  <scstep>
   <time name="diag">    2.63    2.63</time>
   <time name="diis">   84.48   84.63</time>
   <time name="orth">    0.61    0.61</time>
   <time name="total">   88.42   88.58</time>
   <energy>
    <i name="e_fr_energy">   -460.75403419 </i>
    <i name="e_wo_entrp">   -460.16352705 </i>
    <i name="e_0_energy">   -460.45878062 </i>
   </energy>
  </scstep>
  <scstep>
   <time name="diag">    2.64    2.64</time>
   <time name="diis">   86.57   86.77</time>
   <time name="orth">    0.62    0.62</time>
   <time name="total">   90.52   90.73</time>
   <energy>
    <i name="e_fr_energy">   -460.76245667 </i>
    <i name="e_wo_entrp">   -460.18268495 </i>
    <i name="e_0_energy">   -460.47257081 </i>
   </energy>
  </scstep>
  <scstep>
   <time name="diag">    2.62    2.62</time>
   <time name="diis">   86.03   86.42</time>
   <time name="orth">    0.63    0.63</time>
   <time name="total">   89.98   90.37</time>
   <energy>
    <i name="e_fr_energy">   -460.76150478 </i>
    <i name="e_wo_entrp">   -460.16860562 </i>
    <i name="e_0_energy">   -460.46505520 </i>
   </energy>
  </scstep>
  <scstep>
   <time name="diag">    2.62    2.62</time>
   <time name="diis">   84.26   84.55</time>
   <time name="orth">    0.61    0.61</time>
   <time name="total">   88.20   88.49</time>
   <energy>
    <i name="e_fr_energy">   -460.75850940 </i>
    <i name="e_wo_entrp">   -460.16967881 </i>
    <i name="e_0_energy">   -460.46409410 </i>
   </energy>
  </scstep>
  <scstep>
   <time name="diag">    2.64    2.64</time>
   <time name="diis">   82.67   82.94</time>
   <time name="orth">    0.61    0.61</time>
   <time name="total">   86.62   86.90</time>
   <energy>
    <i name="e_fr_energy">   -460.76028552 </i>
    <i name="e_wo_entrp">   -460.16968861 </i>
    <i name="e_0_energy">   -460.46498706 </i>
   </energy>
  </scstep>
  <scstep>
   <time name="diag">    2.62    2.62</time>
   <time name="diis">   78.50   78.73</time>
   <time name="orth">    0.61    0.61</time>
   <time name="total">   82.43   82.67</time>
   <energy>
    <i name="e_fr_energy">   -460.76240694 </i>
    <i name="e_wo_entrp">   -460.16972354 </i>
    <i name="e_0_energy">   -460.46606524 </i>
   </energy>
  </scstep>
  <scstep>
   <time name="diag">    2.62    2.63</time>
   <time name="diis">   79.25   79.72</time>
   <time name="orth">    0.62    0.62</time>
   <time name="total">   83.20   83.67</time>
   <energy>
    <i name="e_fr_energy">   -460.76324328 </i>
    <i name="e_wo_entrp">   -460.17201813 </i>
    <i name="e_0_energy">   -460.46763070 </i>
   </energy>
  </scstep>
  <scstep>
   <time name="diag">    2.63    2.63</time>
   <time name="diis">   82.73   83.02</time>
   <time name="orth">    0.61    0.61</time>
   <time name="total">   86.68   86.98</time>
   <energy>
    <i name="e_fr_energy">   -460.76442820 </i>
    <i name="e_wo_entrp">   -460.17331343 </i>
    <i name="e_0_energy">   -460.46887082 </i>
   </energy>
  </scstep>
  <scstep>
   <time name="diag">    2.62    2.62</time>
   <time name="diis">   78.14   78.45</time>
   <time name="orth">    0.61    0.61</time>
   <time name="total">   82.08   82.40</time>
   <energy>
    <i name="e_fr_energy">   -460.76511135 </i>
    <i name="e_wo_entrp">   -460.17311614 </i>
    <i name="e_0_energy">   -460.46911374 </i>
   </energy>
  </scstep>
  <scstep>
   <time name="diag">    2.63    2.63</time>
   <time name="diis">   74.90   75.18</time>
   <time name="orth">    0.61    0.61</time>
   <time name="total">   78.85   79.13</time>
   <energy>
    <i name="e_fr_energy">   -460.76571563 </i>
    <i name="e_wo_entrp">   -460.17337468 </i>
    <i name="e_0_energy">   -460.46954516 </i>
   </energy>
  </scstep>
  <scstep>
   <time name="diag">    2.64    2.66</time>
   <time name="diis">   76.53   76.71</time>
   <time name="orth">    0.61    0.61</time>
   <time name="total">   80.49   80.68</time>
   <energy>
    <i name="e_fr_energy">   -460.76609825 </i>
    <i name="e_wo_entrp">   -460.17390582 </i>
    <i name="e_0_energy">   -460.47000204 </i>
   </energy>
  </scstep>
  <scstep>
   <time name="diag">    2.62    2.63</time>
   <time name="diis">   74.56   74.86</time>
   <time name="orth">    0.65    0.65</time>
   <time name="total">   78.54   78.86</time>
   <energy>
    <i name="e_fr_energy">   -460.76646830 </i>
    <i name="e_wo_entrp">   -460.17337664 </i>
    <i name="e_0_energy">   -460.46992247 </i>
   </energy>
  </scstep>
  <scstep>
   <time name="diag">    2.68    2.68</time>
   <time name="diis">   72.54   72.78</time>
   <time name="orth">    0.61    0.61</time>
   <time name="total">   76.55   76.79</time>
   <energy>
    <i name="e_fr_energy">   -460.76674985 </i>
    <i name="e_wo_entrp">   -460.17355224 </i>
    <i name="e_0_energy">   -460.47015104 </i>
   </energy>
  </scstep>
  <scstep>
   <time name="diag">    2.62    2.62</time>
   <time name="diis">   66.51   66.75</time>
   <time name="orth">    0.61    0.61</time>
   <time name="total">   70.45   70.69</time>
   <energy>
    <i name="e_fr_energy">   -460.76698123 </i>
    <i name="e_wo_entrp">   -460.17394251 </i>
    <i name="e_0_energy">   -460.47046187 </i>
   </energy>
  </scstep>
  <scstep>
   <time name="diag">    2.64    2.64</time>
   <time name="diis">   51.78   51.91</time>
   <time name="orth">    0.62    0.64</time>
   <time name="total">   55.76   55.91</time>
   <energy>
    <i name="e_fr_energy">   -460.76716873 </i>
    <i name="e_wo_entrp">   -460.17397808 </i>
    <i name="e_0_energy">   -460.47057340 </i>
   </energy>
  </scstep>
  <scstep>
   <time name="diag">    2.63    2.63</time>
   <time name="diis">   45.79   45.97</time>
   <time name="orth">    0.61    0.61</time>
   <time name="total">   49.74   49.93</time>
   <energy>
    <i name="e_fr_energy">   -460.76731438 </i>
    <i name="e_wo_entrp">   -460.17393210 </i>
    <i name="e_0_energy">   -460.47062324 </i>
   </energy>
  </scstep>
  <scstep>
   <time name="diag">    2.62    2.62</time>
   <time name="diis">   45.53   45.57</time>
   <time name="orth">    0.61    0.61</time>
   <time name="total">   49.48   49.53</time>
   <energy>
    <i name="e_fr_energy">   -460.76743265 </i>
    <i name="e_wo_entrp">   -460.17392530 </i>
    <i name="e_0_energy">   -460.47067898 </i>
   </energy>
  </scstep>
  <scstep>
   <time name="diag">    2.63    2.63</time>
   <time name="diis">   44.96   45.06</time>
   <time name="orth">    0.61    0.61</time>
   <time name="total">   48.91   49.02</time>
   <energy>
    <i name="e_fr_energy">   -460.76752640 </i>
    <i name="e_wo_entrp">   -460.17387688 </i>
    <i name="e_0_energy">   -460.47070164 </i>
   </energy>
  </scstep>
  <scstep>
   <time name="diag">    2.74    2.77</time>
   <time name="diis">   44.70   44.77</time>
   <time name="orth">    0.61    0.61</time>
   <time name="total">   48.76   48.87</time>
   <energy>
    <i name="e_fr_energy">   -460.76760469 </i>
    <i name="e_wo_entrp">   -460.17385160 </i>
    <i name="e_0_energy">   -460.47072815 </i>
   </energy>
  </scstep>
  <scstep>
   <time name="diag">    2.63    2.63</time>
   <time name="diis">   44.34   44.48</time>
   <time name="orth">    0.61    0.61</time>
   <time name="total">   48.30   48.44</time>
   <energy>
    <i name="e_fr_energy">   -460.76766429 </i>
    <i name="e_wo_entrp">   -460.17381835 </i>
    <i name="e_0_energy">   -460.47074132 </i>
   </energy>
  </scstep>
  <scstep>
   <time name="diag">    2.64    2.64</time>
   <time name="diis">   44.18   44.39</time>
   <time name="orth">    0.61    0.61</time>
   <time name="total">   48.14   48.36</time>
   <energy>
    <i name="e_fr_energy">   -460.76771846 </i>
    <i name="e_wo_entrp">   -460.17381316 </i>
    <i name="e_0_energy">   -460.47076581 </i>
   </energy>
  </scstep>
  <scstep>
   <time name="diag">    2.61    2.62</time>
   <time name="diis">   43.70   43.86</time>
   <time name="orth">    0.61    0.61</time>
   <time name="total">   47.63   47.80</time>
   <energy>
    <i name="e_fr_energy">   -460.76775799 </i>
    <i name="e_wo_entrp">   -460.17378928 </i>
    <i name="e_0_energy">   -460.47077363 </i>
   </energy>
  </scstep>
  <scstep>
   <time name="diag">    2.63    2.65</time>
   <time name="diis">   43.61   43.76</time>
   <time name="orth">    0.63    0.63</time>
   <time name="total">   47.59   47.77</time>
   <energy>
    <i name="e_fr_energy">   -460.76779187 </i>
    <i name="e_wo_entrp">   -460.17377214 </i>
    <i name="e_0_energy">   -460.47078200 </i>
   </energy>
  </scstep>
  <scstep>
   <time name="diag">    2.68    2.69</time>
   <time name="diis">   43.15   43.36</time>
   <time name="orth">    0.61    0.61</time>
   <time name="total">   47.15   47.38</time>
   <energy>
    <i name="e_fr_energy">   -460.76781758 </i>
    <i name="e_wo_entrp">   -460.17373427 </i>
    <i name="e_0_energy">   -460.47077593 </i>
   </energy>
  </scstep>
  <scstep>
   <time name="diag">    2.61    2.61</time>
   <time name="diis">   43.19   43.31</time>
   <time name="orth">    0.61    0.61</time>
   <time name="total">   47.13   47.25</time>
   <energy>
    <i name="e_fr_energy">   -460.76784028 </i>
    <i name="e_wo_entrp">   -460.17371542 </i>
    <i name="e_0_energy">   -460.47077785 </i>
   </energy>
  </scstep>
  <scstep>
   <time name="diag">    2.63    2.63</time>
   <time name="diis">   42.63   42.73</time>
   <time name="orth">    0.61    0.62</time>
   <time name="total">   46.59   46.70</time>
   <energy>
    <i name="e_fr_energy">   -460.76785728 </i>
    <i name="e_wo_entrp">   -460.17370297 </i>
    <i name="e_0_energy">   -460.47078013 </i>
   </energy>
  </scstep>
  <scstep>
   <time name="diag">    2.63    2.63</time>
   <time name="diis">   42.05   42.09</time>
   <time name="orth">    0.64    0.65</time>
   <time name="total">   46.06   46.12</time>
   <energy>
    <i name="e_fr_energy">   -460.76787140 </i>
    <i name="e_wo_entrp">   -460.17369117 </i>
    <i name="e_0_energy">   -460.47078128 </i>
   </energy>
  </scstep>
  <scstep>
   <time name="diag">    2.64    2.65</time>
   <time name="diis">   41.77   41.92</time>
   <time name="orth">    0.61    0.61</time>
   <time name="total">   45.73   45.90</time>
   <energy>
    <i name="e_fr_energy">   -460.76788360 </i>
    <i name="e_wo_entrp">   -460.17367373 </i>
    <i name="e_0_energy">   -460.47077867 </i>
   </energy>
  </scstep>
  <scstep>
   <time name="diag">    2.61    2.61</time>
   <time name="diis">   40.97   41.18</time>
   <time name="orth">    0.61    0.61</time>
   <time name="total">   44.24   44.45</time>
   <energy>
    <i name="alphaZ">   1911.78599439 </i>
    <i name="ewald"> -28583.54933356 </i>
    <i name="hartreedc"> -10841.07918618 </i>
    <i name="XCdc">   1182.26485516 </i>
    <i name="pawpsdc">  25274.72353230 </i>
    <i name="pawaedc"> -24709.25663048 </i>
    <i name="eentropy">     -0.59423659 </i>
    <i name="bandstr">  -7346.45987045 </i>
    <i name="atom">  42651.39698219 </i>
    <i name="e_fr_energy">   -460.76789322 </i>
    <i name="e_wo_entrp">   -460.17365663 </i>
    <i name="e_0_energy">   -460.47077492 </i>
   </energy>
  </scstep>
  <structure>
   <crystal>
    <varray name="basis" >
     <v>      11.23999977       0.00000000       0.00000000 </v>
     <v>       0.00000000      11.23999977       0.00000000 </v>
     <v>       0.00000000       0.00000000      11.23999977 </v>
    </varray>
    <i name="volume">   1420.03453724 </i>
    <varray name="rec_basis" >
     <v>       0.08896797       0.00000000       0.00000000 </v>
     <v>       0.00000000       0.08896797       0.00000000 </v>
     <v>       0.00000000       0.00000000       0.08896797 </v>
    </varray>
   </crystal>
   <varray name="positions" >
    <v>       0.00000000       0.00000000       0.00000000 </v>
    <v>       0.25000000       0.00000000       0.25000000 </v>
    <v>       0.25000000       0.50000000       0.25000000 </v>
    <v>       0.50000000       0.50000000       0.00000000 </v>
    <v>       0.50000000       0.25000000       0.75000004 </v>
    <v>       0.00000000       0.50000000       0.50000000 </v>
    <v>       0.50000000       0.75000004       0.75000004 </v>
    <v>       0.00000000       0.25000000       0.25000000 </v>
    <v>       0.75000004       0.75000004       0.00000000 </v>
    <v>       0.00000000       0.25000000       0.75000004 </v>
    <v>       0.75000004       0.25000000       0.50000000 </v>
    <v>       0.00000000       0.75000004       0.75000004 </v>
    <v>       0.25000000       0.50000000       0.75000004 </v>
    <v>       0.25000000       0.25000000       0.00000000 </v>
    <v>       0.50000000       0.25000000       0.25000000 </v>
    <v>       0.75000004       0.00000000       0.25000000 </v>
    <v>       0.75000004       0.25000000       0.00000000 </v>
    <v>       0.25000000       0.75000004       0.00000000 </v>
    <v>       0.25000000       0.25000000       0.50000000 </v>
    <v>       0.25000000       0.75000004       0.50000000 </v>
    <v>       0.25000000       0.25000000       0.25000000 </v>
    <v>       0.25000000       0.00000000       0.00000000 </v>
    <v>       0.00000000       0.25000000       0.00000000 </v>
    <v>       0.75000004       0.25000000       0.25000000 </v>
    <v>       0.75000004       0.00000000       0.00000000 </v>
    <v>       0.50000000       0.00000000       0.25000000 </v>
    <v>       0.00000000       0.50000000       0.25000000 </v>
    <v>       0.50000000       0.75000004       0.00000000 </v>
    <v>       0.00000000       0.00000000       0.75000004 </v>
    <v>       0.75000004       0.25000000       0.75000004 </v>
    <v>       0.75000004       0.00000000       0.50000000 </v>
    <v>       0.50000000       0.25000000       0.50000000 </v>
    <v>       0.50000000       0.00000000       0.75000004 </v>
    <v>       0.00000000       0.00000000       0.25000000 </v>
    <v>       0.50000000       0.25000000       0.00000000 </v>
    <v>       0.25000000       0.75000004       0.25000000 </v>
    <v>       0.25000000       0.50000000       0.00000000 </v>
    <v>       0.00000000       0.75000004       0.00000000 </v>
    <v>       0.75000004       0.75000004       0.25000000 </v>
    <v>       0.75000004       0.50000000       0.00000000 </v>
    <v>       0.50000000       0.50000000       0.25000000 </v>
    <v>       0.25000000       0.25000000       0.75000004 </v>
    <v>       0.25000000       0.00000000       0.50000000 </v>
    <v>       0.00000000       0.25000000       0.50000000 </v>
    <v>       0.25000000       0.75000004       0.75000004 </v>
    <v>       0.25000000       0.50000000       0.50000000 </v>
    <v>       0.00000000       0.75000004       0.50000000 </v>
    <v>       0.00000000       0.50000000       0.75000004 </v>
    <v>       0.75000004       0.75000004       0.75000004 </v>
    <v>       0.75000004       0.50000000       0.50000000 </v>
    <v>       0.50000000       0.75000004       0.50000000 </v>
    <v>       0.50000000       0.50000000       0.75000004 </v>
    <v>       0.50000000       0.00000000       0.00000000 </v>
    <v>       0.00000000       0.50000000       0.00000000 </v>
    <v>       0.50000000       0.75000004       0.25000000 </v>
    <v>       0.25000000       0.00000000       0.75000004 </v>
    <v>       0.50000000       0.00000000       0.50000000 </v>
    <v>       0.75000004       0.00000000       0.75000004 </v>
    <v>       0.00000000       0.75000004       0.25000000 </v>
    <v>       0.75000004       0.50000000       0.25000000 </v>
    <v>       0.00000000       0.00000000       0.50000000 </v>
    <v>       0.50000000       0.50000000       0.50000000 </v>
    <v>       0.75000004       0.50000000       0.75000004 </v>
    <v>       0.75000004       0.75000004       0.50000000 </v>
   </varray>
  </structure>
  <varray name="forces" >
   <v>       0.03014404      -0.44394290       0.15829735 </v>
   <v>      -0.15667861      -0.54487259       0.34837469 </v>
   <v>       0.20142206       0.54494367      -0.02941202 </v>
   <v>       0.05579756      -0.17818907       0.01895204 </v>
   <v>      -0.23734826       0.01485040       0.20668678 </v>
   <v>      -0.10490983       0.13660817       0.19164373 </v>
   <v>       0.08653237      -0.04994384      -0.31158808 </v>
   <v>      -0.14678522      -0.36483128       0.63282772 </v>
   <v>       0.37318563      -0.51744601      -0.00341563 </v>
   <v>       0.32799666       0.36138029      -0.64414162 </v>
   <v>       0.55417654       0.43259993       0.33330007 </v>
   <v>      -0.13495592      -0.31914137      -0.11169797 </v>
   <v>       0.09425882       0.04764624       0.04686638 </v>
   <v>       0.22241484       0.13734294      -0.48563432 </v>
   <v>       0.06600834       0.23402078      -0.16659390 </v>
   <v>       0.08222358      -0.57372743       0.15997929 </v>
   <v>      -0.26936950       0.33167154      -0.30173699 </v>
   <v>      -0.13812486      -0.10992929       0.03783130 </v>
   <v>      -0.25469986      -0.13493902       0.46728887 </v>
   <v>       0.04875026       0.13296151      -0.03656232 </v>
   <v>       0.04815890      -0.00608646      -0.07792498 </v>
   <v>       0.01274669       0.04590196       0.06504040 </v>
   <v>       0.01688006      -0.10838874       0.01599242 </v>
   <v>      -0.07781636      -0.67556285      -0.05927147 </v>
   <v>      -0.02625905       0.07923509       0.48707180 </v>
   <v>       0.56381658       0.63141304      -0.01424888 </v>
   <v>       0.10476037      -0.83029827      -0.03123723 </v>
   <v>       0.02447607       0.03463738      -0.07082417 </v>
   <v>      -0.08746487       0.07623773       0.16386817 </v>
   <v>       0.42535619      -0.19381571       0.02599673 </v>
   <v>      -0.16471289       0.73819880      -0.48188827 </v>
   <v>       0.04166576      -0.15630920      -0.52365150 </v>
   <v>       0.07982138       0.03479904       0.00833711 </v>
   <v>      -0.45038318       0.82242015      -0.13063043 </v>
   <v>       0.04400556      -0.23932546       0.44603190 </v>
   <v>       0.24090780       0.00700612      -0.07545231 </v>
   <v>      -0.14498343      -0.02503211      -0.42228829 </v>
   <v>      -0.24618298      -0.08252841      -0.63054661 </v>
   <v>      -0.24389501       0.49021790      -0.64656646 </v>
   <v>       0.17057197       0.19192578       0.05608283 </v>
   <v>      -0.01485138      -0.20196237      -0.02126464 </v>
   <v>      -0.53296765       0.37568488       0.07640609 </v>
   <v>       0.29020163       0.07618232       0.19062150 </v>
   <v>      -0.24218079       0.05235942       0.00366605 </v>
   <v>      -0.49814800      -0.41224686       0.08098600 </v>
   <v>      -0.08280001      -0.08845386       0.45101790 </v>
   <v>       0.33888863      -0.07188953       0.72287985 </v>
   <v>       0.49363197      -0.05117652       0.19642828 </v>
   <v>       0.53512559       0.30111241       0.63036077 </v>
   <v>       0.04430241      -0.74985757      -0.04674977 </v>
   <v>      -0.31869418       0.30359008      -0.20831284 </v>
   <v>      -0.59067446      -0.01818595       0.01806100 </v>
   <v>       0.06460097       0.38477158      -0.14425893 </v>
   <v>      -0.12574379       0.47983761      -0.45831978 </v>
   <v>       0.05387431      -0.49015060       0.53208205 </v>
   <v>       0.11119888      -0.02663998      -0.54242329 </v>
   <v>      -0.47755157      -0.61830770       0.16869201 </v>
   <v>      -0.13440804      -0.54300463      -0.07456825 </v>
   <v>      -0.02173001       0.32252290       0.02989754 </v>
   <v>      -0.30331153       0.59551311       0.02538334 </v>
   <v>       0.34242911      -0.08628039      -0.20515433 </v>
   <v>       0.13581596       0.44775222      -0.00140674 </v>
   <v>      -0.05448386       0.41123842      -0.00885449 </v>
   <v>      -0.04403239      -0.36411745      -0.03032543 </v>
  </varray>
  <varray name="stress" >
   <v>    -417.11951400      -0.04023967       0.10593123 </v>
   <v>      -0.04024017    -418.44058163       0.14403031 </v>
   <v>       0.10593152       0.14403063    -417.76810483 </v>
  </varray>
  <energy>
   <i name="e_fr_energy">   -460.76789322 </i>
   <i name="e_wo_entrp">   -460.47077492 </i>
   <i name="e_0_energy">     -0.59423659 </i>
  </energy>
  <time name="totalsc"> 4174.31 4203.95</time>
 </calculation>
 <calculation>
  <scstep>
   <time name="dav">   76.30   77.23</time>
   <time name="total">   76.92   77.86</time>
   <energy>
    <i name="alphaZ">   5103.18597701 </i>
    <i name="ewald"> -39658.98836713 </i>
    <i name="hartreedc"> -15026.16071843 </i>
    <i name="XCdc">   1840.87770230 </i>
    <i name="pawpsdc">  25274.72588261 </i>
    <i name="pawaedc"> -24709.25892019 </i>
    <i name="eentropy">     -0.07520260 </i>
    <i name="bandstr">   1072.41557768 </i>
    <i name="atom">  42651.39698219 </i>
    <i name="e_fr_energy">  -3451.88108655 </i>
    <i name="e_wo_entrp">  -3451.80588395 </i>
    <i name="e_0_energy">  -3451.84348525 </i>
   </energy>
  </scstep>
  <scstep>
   <time name="diag">    2.63    2.63</time>
   <time name="diis">   85.32   85.52</time>
   <time name="orth">    0.61    0.61</time>
   <time name="total">   89.19   89.39</time>
   <energy>
    <i name="e_fr_energy">  -1346.73533130 </i>
    <i name="e_wo_entrp">  -1346.59753647 </i>
    <i name="e_0_energy">  -1346.66643388 </i>
   </energy>
  </scstep>
  <scstep>
   <time name="diag">    2.63    2.63</time>
   <time name="diis">   59.98   60.12</time>
   <time name="orth">    0.61    0.61</time>
   <time name="total">   63.85   63.99</time>
   <energy>
    <i name="e_fr_energy">   -648.44898566 </i>
    <i name="e_wo_entrp">   -648.34208384 </i>
    <i name="e_0_energy">   -648.39553475 </i>
   </energy>
  </scstep>
  <scstep>
   <time name="diag">    2.63    2.63</time>
   <time name="diis">   69.02   69.22</time>
   <time name="orth">    0.61    0.61</time>
   <time name="total">   72.90   73.10</time>
   <energy>
    <i name="e_fr_energy">   -621.45297385 </i>
    <i name="e_wo_entrp">   -621.32887936 </i>
    <i name="e_0_energy">   -621.39092661 </i>
   </energy>
  </scstep>
  <scstep>
   <time name="diag">    2.67    2.68</time>
   <time name="diis">   83.60   83.80</time>
   <time name="orth">    0.61    0.61</time>
   <time name="total">   87.52   87.73</time>
   <energy>
    <i name="e_fr_energy">   -613.03340455 </i>
    <i name="e_wo_entrp">   -612.92012570 </i>
    <i name="e_0_energy">   -612.97676512 </i>
   </energy>
  </scstep>
  <scstep>
   <time name="diag">    2.63    2.63</time>
   <time name="diis">   83.63   83.93</time>
   <time name="orth">    0.61    0.61</time>
   <time name="total">   87.50   87.84</time>
   <energy>
    <i name="e_fr_energy">   -602.07804308 </i>
    <i name="e_wo_entrp">   -601.96190190 </i>
    <i name="e_0_energy">   -602.01997249 </i>
   </energy>
  </scstep>
  <scstep>
   <time name="diag">    2.67    2.68</time>
   <time name="diis">   93.60   93.91</time>
   <time name="orth">    0.62    0.62</time>
   <time name="total">   97.54   97.86</time>
   <energy>
    <i name="e_fr_energy">   -604.16481959 </i>
    <i name="e_wo_entrp">   -604.03932164 </i>
    <i name="e_0_energy">   -604.10207062 </i>
   </energy>
  </scstep>
  <scstep>
   <time name="diag">    2.63    2.63</time>
   <time name="diis">   96.45   96.62</time>
   <time name="orth">    0.61    0.61</time>
   <time name="total">  100.33  100.51</time>
   <energy>
    <i name="e_fr_energy">   -603.35116154 </i>
    <i name="e_wo_entrp">   -603.21733745 </i>
    <i name="e_0_energy">   -603.28424949 </i>
   </energy>
  </scstep>
  <scstep>
   <time name="diag">    2.63    2.63</time>
   <time name="diis">   93.24   93.34</time>
   <time name="orth">    0.61    0.61</time>
   <time name="total">   97.11   97.21</time>
   <energy>
    <i name="e_fr_energy">   -604.10411931 </i>
    <i name="e_wo_entrp">   -603.96745911 </i>
    <i name="e_0_energy">   -604.03578921 </i>
   </energy>
  </scstep>
  <scstep>
   <time name="diag">    2.63    2.63</time>
   <time name="diis">   90.85   90.95</time>
   <time name="orth">    0.64    0.64</time>
   <time name="total">   94.75   94.86</time>
   <energy>
    <i name="e_fr_energy">   -604.98451719 </i>
    <i name="e_wo_entrp">   -604.85832250 </i>
    <i name="e_0_energy">   -604.92141984 </i>
   </energy>
  </scstep>
  <scstep>
   <time name="diag">    2.63    2.63</time>
   <time name="diis">   94.44   94.57</time>
   <time name="orth">    0.64    0.64</time>
   <time name="total">   98.34   98.48</time>
   <energy>
    <i name="e_fr_energy">   -605.11280901 </i>
    <i name="e_wo_entrp">   -604.97936234 </i>
    <i name="e_0_energy">   -605.04608568 </i>
   </energy>
  </scstep>
  <scstep>
   <time name="diag">    2.64    2.64</time>
   <time name="diis">   89.49   89.71</time>
   <time name="orth">    0.61    0.61</time>
   <time name="total">   93.38   93.60</time>
   <energy>
    <i name="e_fr_energy">   -605.06641807 </i>
    <i name="e_wo_entrp">   -604.93464645 </i>
    <i name="e_0_energy">   -605.00053226 </i>
   </energy>
  </scstep>
  <scstep>
   <time name="diag">    2.65    2.66</time>
   <time name="diis">   93.55   93.91</time>
   <time name="orth">    0.61    0.61</time>
   <time name="total">   97.45   97.81</time>
   <energy>
    <i name="e_fr_energy">   -605.07554588 </i>
    <i name="e_wo_entrp">   -604.94350763 </i>
    <i name="e_0_energy">   -605.00952676 </i>
   </energy>
  </scstep>
  <scstep>
   <time name="diag">    2.63    2.63</time>
   <time name="diis">   93.08   93.26</time>
   <time name="orth">    0.61    0.61</time>
   <time name="total">   96.95   97.14</time>
   <energy>
    <i name="e_fr_energy">   -605.07653580 </i>
    <i name="e_wo_entrp">   -604.94307006 </i>
    <i name="e_0_energy">   -605.00980293 </i>
   </energy>
  </scstep>
  <scstep>
   <time name="diag">    2.65    2.65</time>
   <time name="diis">   93.43   93.70</time>
   <time name="orth">    0.61    0.61</time>
   <time name="total">   97.33   97.60</time>
   <energy>
    <i name="e_fr_energy">   -605.07975772 </i>
    <i name="e_wo_entrp">   -604.94681535 </i>
    <i name="e_0_energy">   -605.01328653 </i>
   </energy>
  </scstep>
  <scstep>
   <time name="diag">    2.63    2.64</time>
   <time name="diis">   93.66   93.99</time>
   <time name="orth">    0.61    0.61</time>
   <time name="total">   97.54   97.88</time>
   <energy>
    <i name="e_fr_energy">   -605.07822485 </i>
    <i name="e_wo_entrp">   -604.94554892 </i>
    <i name="e_0_energy">   -605.01188689 </i>
   </energy>
  </scstep>
  <scstep>
   <time name="diag">    2.65    2.65</time>
   <time name="diis">   92.14   92.30</time>
   <time name="orth">    0.61    0.61</time>
   <time name="total">   96.04   96.21</time>
   <energy>
    <i name="e_fr_energy">   -605.07809234 </i>
    <i name="e_wo_entrp">   -604.94525070 </i>
    <i name="e_0_energy">   -605.01167152 </i>
   </energy>
  </scstep>
  <scstep>
   <time name="diag">    2.62    2.62</time>
   <time name="diis">   92.63   92.90</time>
   <time name="orth">    0.61    0.61</time>
   <time name="total">   96.50   96.77</time>
   <energy>
    <i name="e_fr_energy">   -605.07817867 </i>
    <i name="e_wo_entrp">   -604.94556271 </i>
    <i name="e_0_energy">   -605.01187069 </i>
   </energy>
  </scstep>
  <scstep>
   <time name="diag">    2.64    2.64</time>
   <time name="diis">   92.22   92.34</time>
   <time name="orth">    0.61    0.61</time>
   <time name="total">   96.11   96.23</time>
   <energy>
    <i name="e_fr_energy">   -605.07807116 </i>
    <i name="e_wo_entrp">   -604.94531623 </i>
    <i name="e_0_energy">   -605.01169369 </i>
   </energy>
  </scstep>
  <scstep>
   <time name="diag">    2.64    2.64</time>
   <time name="diis">   89.69   89.94</time>
   <time name="orth">    0.61    0.61</time>
   <time name="total">   93.57   93.82</time>
   <energy>
    <i name="e_fr_energy">   -605.07812471 </i>
    <i name="e_wo_entrp">   -604.94543090 </i>
    <i name="e_0_energy">   -605.01177780 </i>
   </energy>
  </scstep>
  <scstep>
   <time name="diag">    2.64    2.65</time>
   <time name="diis">   86.89   87.12</time>
   <time name="orth">    0.61    0.61</time>
   <time name="total">   90.78   91.01</time>
   <energy>
    <i name="e_fr_energy">   -605.07812605 </i>
    <i name="e_wo_entrp">   -604.94543033 </i>
    <i name="e_0_energy">   -605.01177819 </i>
   </energy>
  </scstep>
  <scstep>
   <time name="diag">    2.63    2.64</time>
   <time name="diis">   80.33   80.46</time>
   <time name="orth">    0.61    0.61</time>
   <time name="total">   84.22   84.35</time>
   <energy>
    <i name="e_fr_energy">   -605.07814054 </i>
    <i name="e_wo_entrp">   -604.94545027 </i>
    <i name="e_0_energy">   -605.01179540 </i>
   </energy>
  </scstep>
  <scstep>
   <time name="diag">    2.63    2.63</time>
   <time name="diis">   67.38   67.54</time>
   <time name="orth">    0.61    0.61</time>
   <time name="total">   70.68   70.84</time>
   <energy>
    <i name="alphaZ">   5103.18597701 </i>
    <i name="ewald"> -39658.98836713 </i>
    <i name="hartreedc">  -6811.40364457 </i>
    <i name="XCdc">   1381.41657858 </i>
    <i name="pawpsdc">  32269.52590125 </i>
    <i name="pawaedc"> -31695.49115037 </i>
    <i name="eentropy">     -0.13269325 </i>
    <i name="bandstr">  -3844.58772657 </i>
    <i name="atom">  42651.39698219 </i>
    <i name="e_fr_energy">   -605.07814287 </i>
    <i name="e_wo_entrp">   -604.94544962 </i>
    <i name="e_0_energy">   -605.01179624 </i>
   </energy>
  </scstep>
  <structure>
   <crystal>
    <varray name="basis" >
     <v>       8.10767811      -0.00030218       0.00079548 </v>
     <v>      -0.00030218       8.09775767       0.00108158 </v>
     <v>       0.00079548       0.00108159       8.10280757 </v>
    </varray>
    <i name="volume">    531.98181530 </i>
    <varray name="rec_basis" >
     <v>       0.12333988       0.00000460      -0.00001211 </v>
     <v>       0.00000460       0.12349098      -0.00001648 </v>
     <v>      -0.00001211      -0.00001648       0.12341402 </v>
    </varray>
   </crystal>
   <varray name="positions" >
    <v>       0.00012938      -0.00190543       0.00067942 </v>
    <v>       0.24932753      -0.00233862       0.25149524 </v>
    <v>       0.25086451       0.50233893       0.24987376 </v>
    <v>       0.50023949       0.49923520       0.00008134 </v>
    <v>       0.49898129       0.25006374       0.75088715 </v>
    <v>      -0.00045028       0.50058633       0.50082254 </v>
    <v>       0.50037140       0.74978568       0.74866269 </v>
    <v>      -0.00063001       0.24843413       0.25271613 </v>
    <v>       0.75160177       0.74777914      -0.00001466 </v>
    <v>       0.00140778       0.25155106       0.74723535 </v>
    <v>       0.75237860       0.25185674       0.50143054 </v>
    <v>      -0.00057924       0.74863027       0.74952063 </v>
    <v>       0.25040456       0.50020450       0.75020119 </v>
    <v>       0.25095462       0.25058948      -0.00208437 </v>
    <v>       0.50028331       0.25100443       0.24928497 </v>
    <v>       0.75035295      -0.00246247       0.25068664 </v>
    <v>       0.74884389       0.25142355      -0.00129507 </v>
    <v>       0.24940716       0.74952822       0.00016237 </v>
    <v>       0.24890682       0.24942083       0.50200563 </v>
    <v>       0.25020924       0.75057072       0.49984307 </v>
    <v>       0.25020670       0.24997388       0.24966554 </v>
    <v>       0.25005471       0.00019701       0.00027916 </v>
    <v>       0.00007245       0.24953479       0.00006864 </v>
    <v>       0.74966605       0.24710045       0.24974560 </v>
    <v>       0.74988734       0.00034008       0.00209054 </v>
    <v>       0.50241993       0.00271006       0.24993884 </v>
    <v>       0.00044964       0.49643632       0.24986593 </v>
    <v>       0.50010505       0.75014871      -0.00030398 </v>
    <v>      -0.00037540       0.00032722       0.75070337 </v>
    <v>       0.75182569       0.24916813       0.75011162 </v>
    <v>       0.74929309       0.00316839       0.49793171 </v>
    <v>       0.50017883       0.24932911       0.49775246 </v>
    <v>       0.50034260       0.00014936       0.75003583 </v>
    <v>      -0.00193307       0.00352987       0.24943933 </v>
    <v>       0.50018887       0.24897280       0.00191439 </v>
    <v>       0.25103399       0.75003011       0.24967615 </v>
    <v>       0.24937772       0.49989256      -0.00181248 </v>
    <v>      -0.00105663       0.74964583      -0.00270634 </v>
    <v>       0.74895323       0.75210408       0.24722490 </v>
    <v>       0.75073215       0.50082376       0.00024071 </v>
    <v>       0.49993626       0.49913317       0.24990873 </v>
    <v>       0.24771248       0.25161246       0.75032798 </v>
    <v>       0.25124556       0.00032698       0.50081816 </v>
    <v>      -0.00103945       0.25022473       0.50001573 </v>
    <v>       0.24786192       0.74823066       0.75034764 </v>
    <v>       0.24964462       0.49962035       0.50193579 </v>
    <v>       0.00145453       0.74969149       0.50310264 </v>
    <v>       0.00211869       0.49978035       0.75084312 </v>
    <v>       0.75229683       0.75129243       0.75270558 </v>
    <v>       0.75019019       0.49678157       0.49979935 </v>
    <v>       0.49863215       0.75130307       0.49910591 </v>
    <v>       0.49746479       0.49992194       0.75007756 </v>
    <v>       0.50027727       0.00165146      -0.00061917 </v>
    <v>      -0.00053970       0.50205949      -0.00196713 </v>
    <v>       0.50023123       0.74789629       0.25228372 </v>
    <v>       0.25047727      -0.00011434       0.74767193 </v>
    <v>       0.49795032      -0.00265381       0.50072403 </v>
    <v>       0.74942316      -0.00233060       0.74967999 </v>
    <v>      -0.00009327       0.75138433       0.25012832 </v>
    <v>       0.74869821       0.50255597       0.25010895 </v>
    <v>       0.00146972      -0.00037032       0.49911947 </v>
    <v>       0.50058293       0.50192178       0.49999396 </v>
    <v>       0.74976619       0.50176506       0.74996204 </v>
    <v>       0.74981105       0.74843723       0.49986984 </v>
   </varray>
  </structure>
  <varray name="forces" >
   <v>       0.21824317      -0.71649290       0.52445551 </v>
   <v>      -0.05700305      -0.19153639      -0.06779841 </v>
   <v>       0.13172220       0.38434119       0.08807970 </v>
   <v>       0.39703545      -0.38702276      -0.27475925 </v>
   <v>       0.38612914      -0.18982926      -0.38785992 </v>
   <v>      -0.71516905       0.64496579      -0.29988428 </v>
   <v>       0.74251299      -0.18955949      -0.48970653 </v>
   <v>       0.38719837       0.01639794       0.20907721 </v>
   <v>      -0.58211444      -0.30827998       0.11285226 </v>
   <v>      -1.05636922      -0.46544650       0.09348897 </v>
   <v>      -0.63127299       0.91173813       0.83697724 </v>
   <v>      -0.95975287       0.41753973      -0.71016308 </v>
   <v>       1.28823163      -0.16158394      -0.17882183 </v>
   <v>      -0.43927744      -1.42994086       1.00262291 </v>
   <v>      -0.45499567       0.86840901       0.68993879 </v>
   <v>       0.35509463      -0.92543618       0.55417430 </v>
   <v>       0.41235277      -0.03216262      -0.89929881 </v>
   <v>       0.72082514       1.17199508       0.81611882 </v>
   <v>       0.86039472      -0.13997314      -1.08279564 </v>
   <v>      -0.22848440       0.01656236      -0.82199893 </v>
   <v>      -0.54005084       0.13980767      -0.06403984 </v>
   <v>      -1.32138578      -0.16120909       1.48562961 </v>
   <v>       0.15466536      -1.47878557       0.12070582 </v>
   <v>       0.40632687       2.25360765       0.40091441 </v>
   <v>       1.55063191      -0.55076445      -0.69685508 </v>
   <v>      -2.27552815      -0.83057444       0.04232437 </v>
   <v>      -0.41043779       1.98524061       1.41553518 </v>
   <v>       0.43427262      -1.51222891      -1.58806176 </v>
   <v>       0.03225588      -0.04383671      -0.40335036 </v>
   <v>      -1.95447545       1.96382203      -0.44698610 </v>
   <v>       1.72516281      -2.22779273       0.93036099 </v>
   <v>       0.59560196       1.85582242       2.33739907 </v>
   <v>      -0.10187794      -0.03574806      -0.11091139 </v>
   <v>       2.38566295      -2.52628366       0.42827745 </v>
   <v>      -0.08258264       1.64731455      -2.46555536 </v>
   <v>      -1.76511975      -0.19744583       0.13041535 </v>
   <v>       1.22423267       0.30619991       2.25311892 </v>
   <v>      -0.18283110       1.60437842       2.24399228 </v>
   <v>       1.95669339      -3.37850129       2.58606850 </v>
   <v>      -1.43312081       0.56150160       0.17203527 </v>
   <v>       0.48176642       1.40733503       0.64244794 </v>
   <v>       2.16675681      -0.32839892      -0.05190030 </v>
   <v>      -1.72890087      -0.25418735      -1.32446209 </v>
   <v>      -0.14091440      -0.32471523      -0.02770814 </v>
   <v>       1.86386053       0.50597322      -0.07885662 </v>
   <v>       0.50406260       0.18776451      -2.22800769 </v>
   <v>      -2.94967939       0.47451937      -2.42161545 </v>
   <v>      -2.47891588       0.12133928      -1.63784362 </v>
   <v>      -2.16214943      -2.11033796      -2.62247813 </v>
   <v>      -0.56094312       2.99416573      -0.08461701 </v>
   <v>       2.83931748      -2.12242477       1.63230812 </v>
   <v>       2.66447525       0.09527848      -0.72704503 </v>
   <v>      -0.15853999       0.86582433      -0.34050960 </v>
   <v>      -0.52832328       0.40410276       0.09079410 </v>
   <v>      -0.00059733      -1.07840682       0.66137975 </v>
   <v>      -0.07137109       0.11604535       0.05821098 </v>
   <v>      -0.62532688      -0.76620037       0.28819903 </v>
   <v>      -0.24547146      -0.70629771      -0.16051608 </v>
   <v>       0.01007716       0.57322483       0.31632122 </v>
   <v>      -0.63081297       1.05083138       0.27493441 </v>
   <v>       0.43924334      -0.13859064      -0.59121865 </v>
   <v>       0.79047439       0.71097844       0.22368095 </v>
   <v>      -0.79795703       0.71352095      -0.13349601 </v>
   <v>       0.14647190      -1.06055316      -0.24371843 </v>
  </varray>
  <varray name="stress" >
   <v>    1182.39564986       6.80446235      -5.28557774 </v>
   <v>       6.80446188    1237.59021171       2.10787079 </v>
   <v>      -5.28557911       2.10787272    1186.70467302 </v>
  </varray>
  <energy>
   <i name="e_fr_energy">   -605.07814287 </i>
   <i name="e_wo_entrp">   -605.01179624 </i>
   <i name="e_0_energy">     -0.13269325 </i>
  </energy>
  <time name="totalsc"> 2218.17 2224.14</time>
 </calculation>
 <calculation>
  <scstep>
   <time name="dav">   85.31   85.56</time>
   <time name="total">   85.96   86.21</time>
[...]
      </set>
     </set>
    </set>
   </array>
  </eigenvalues>
  <separator name="orbital magnetization" >
   <v name="MAGDIPOLOUT">      0.00000000      0.00000000      0.00000000</v>
  </separator>
  <dos>
   <i name="efermi">      7.86571254 </i>
   <total>
    <array>
     <dimension dim="1">gridpoints</dimension>
     <dimension dim="2">spin</dimension>
     <field>energy</field>
     <field>total</field>
     <field>integrated</field>
     <set>
      <set comment="spin 1">
       <r>   -60.4128     0.0000     0.0000 </r>
       <r>   -60.1664     0.0000     0.0000 </r>
       <r>   -59.9200     0.0000     0.0000 </r>
       <r>   -59.6736     0.0000     0.0000 </r>
       <r>   -59.4272     0.0000     0.0000 </r>
       <r>   -59.1808     0.0000     0.0000 </r>
       <r>   -58.9344     0.0000     0.0000 </r>
       <r>   -58.6880     0.0000     0.0000 </r>
       <r>   -58.4416     0.0000     0.0000 </r>
       <r>   -58.1952     0.0000     0.0000 </r>
       <r>   -57.9488     0.0000     0.0000 </r>
       <r>   -57.7024     0.0000     0.0000 </r>
       <r>   -57.4560     0.0000     0.0000 </r>
       <r>   -57.2096     0.1511     0.0372 </r>
       <r>   -56.9632    25.4391     6.3055 </r>
       <r>   -56.7168    22.8075    11.9252 </r>
       <r>   -56.4704     0.3034    12.0000 </r>
       <r>   -56.2240     0.0000    12.0000 </r>
       <r>   -55.9776     0.0000    12.0000 </r>
       <r>   -55.7312     0.0000    12.0000 </r>
       <r>   -55.4848     0.0000    12.0000 </r>
       <r>   -55.2384     0.0000    12.0000 </r>
       <r>   -54.9920     0.0000    12.0000 </r>
       <r>   -54.7456     0.0000    12.0000 </r>
       <r>   -54.4992     0.0000    12.0000 </r>
       <r>   -54.2528     0.0000    12.0000 </r>
       <r>   -54.0064     0.0000    12.0000 </r>
       <r>   -53.7600     0.0000    12.0000 </r>
       <r>   -53.5136     0.0000    12.0000 </r>
       <r>   -53.2672     0.0000    12.0000 </r>
       <r>   -53.0208     0.0000    12.0000 </r>
       <r>   -52.7744     0.0000    12.0000 </r>
       <r>   -52.5280     0.0000    12.0000 </r>
       <r>   -52.2816     0.0000    12.0000 </r>
       <r>   -52.0352     0.0000    12.0000 </r>
       <r>   -51.7888     0.0000    12.0000 </r>
       <r>   -51.5424     0.0000    12.0000 </r>
       <r>   -51.2960     0.0000    12.0000 </r>
       <r>   -51.0496     0.0000    12.0000 </r>
       <r>   -50.8032     0.0000    12.0000 </r>
       <r>   -50.5568     0.0000    12.0000 </r>
       <r>   -50.3104     0.0000    12.0000 </r>
       <r>   -50.0640     0.0006    12.0002 </r>
       <r>   -49.8176     3.1250    12.7702 </r>
       <r>   -49.5712    16.1654    16.7533 </r>
       <r>   -49.3248    32.1220    24.6682 </r>
       <r>   -49.0784     5.3997    25.9987 </r>
       <r>   -48.8320     0.0053    26.0000 </r>
       <r>   -48.5856     0.0000    26.0000 </r>
       <r>   -48.3392     0.0000    26.0000 </r>
       <r>   -48.0928     0.0000    26.0000 </r>
       <r>   -47.8464     0.0000    26.0000 </r>
       <r>   -47.6000     0.0000    26.0000 </r>
       <r>   -47.3536     0.0000    26.0000 </r>
       <r>   -47.1072     0.0000    26.0000 </r>
       <r>   -46.8608     0.0000    26.0000 </r>
       <r>   -46.6144     0.0000    26.0000 </r>
       <r>   -46.3680     0.0000    26.0000 </r>
       <r>   -46.1216     0.0000    26.0000 </r>
       <r>   -45.8752     0.0000    26.0000 </r>
       <r>   -45.6287     0.0000    26.0000 </r>
       <r>   -45.3823     0.0000    26.0000 </r>
       <r>   -45.1359     0.0000    26.0000 </r>
       <r>   -44.8895     0.0000    26.0000 </r>
       <r>   -44.6431     0.0000    26.0000 </r>
       <r>   -44.3967     0.0000    26.0000 </r>
       <r>   -44.1503     0.0000    26.0000 </r>
       <r>   -43.9039     0.0000    26.0000 </r>
       <r>   -43.6575     0.0000    26.0000 </r>
       <r>   -43.4111     0.0000    26.0000 </r>
       <r>   -43.1647     0.0000    26.0000 </r>
       <r>   -42.9183     0.0000    26.0000 </r>
       <r>   -42.6719     0.0000    26.0000 </r>
       <r>   -42.4255     0.0000    26.0000 </r>
       <r>   -42.1791     0.0000    26.0000 </r>
       <r>   -41.9327     0.0000    26.0000 </r>
       <r>   -41.6863     0.0000    26.0000 </r>
       <r>   -41.4399     0.0000    26.0000 </r>
       <r>   -41.1935     0.0000    26.0000 </r>
       <r>   -40.9471     0.0000    26.0000 </r>
       <r>   -40.7007     0.0000    26.0000 </r>
       <r>   -40.4543     0.0000    26.0000 </r>
       <r>   -40.2079     0.0000    26.0000 </r>
       <r>   -39.9615     0.0000    26.0000 </r>
       <r>   -39.7151     0.0000    26.0000 </r>
       <r>   -39.4687     0.0000    26.0000 </r>
       <r>   -39.2223     0.0000    26.0000 </r>
       <r>   -38.9759     0.0000    26.0000 </r>
       <r>   -38.7295     0.0000    26.0000 </r>
       <r>   -38.4831     0.0000    26.0000 </r>
       <r>   -38.2367     0.0000    26.0000 </r>
       <r>   -37.9903     0.0000    26.0000 </r>
       <r>   -37.7439     0.0000    26.0000 </r>
       <r>   -37.4975     0.0000    26.0000 </r>
       <r>   -37.2511     0.0000    26.0000 </r>
       <r>   -37.0047     0.0000    26.0000 </r>
       <r>   -36.7583     0.0000    26.0000 </r>
       <r>   -36.5119     0.0000    26.0000 </r>
       <r>   -36.2655     0.0000    26.0000 </r>
       <r>   -36.0191     0.0000    26.0000 </r>
       <r>   -35.7727     0.0000    26.0000 </r>
       <r>   -35.5263     0.0000    26.0000 </r>
       <r>   -35.2799     0.0000    26.0000 </r>
       <r>   -35.0335     0.0000    26.0000 </r>
       <r>   -34.7871     0.0000    26.0000 </r>
       <r>   -34.5407     0.0000    26.0000 </r>
       <r>   -34.2943     0.0000    26.0000 </r>
       <r>   -34.0479     0.0000    26.0000 </r>
       <r>   -33.8015     0.0000    26.0000 </r>
       <r>   -33.5551     0.0000    26.0000 </r>
       <r>   -33.3087     0.0000    26.0000 </r>
       <r>   -33.0623     0.0000    26.0000 </r>
       <r>   -32.8159     0.0000    26.0000 </r>
       <r>   -32.5695     0.0000    26.0000 </r>
       <r>   -32.3231     0.0000    26.0000 </r>
       <r>   -32.0767     0.0000    26.0000 </r>
       <r>   -31.8303     0.0000    26.0000 </r>
       <r>   -31.5839     0.0000    26.0000 </r>
       <r>   -31.3375     0.0010    26.0002 </r>
       <r>   -31.0911    11.0682    28.7275 </r>
       <r>   -30.8447    90.7369    51.0851 </r>
       <r>   -30.5983    43.9250    61.9083 </r>
       <r>   -30.3519     0.3723    62.0000 </r>
       <r>   -30.1055     0.0000    62.0000 </r>
       <r>   -29.8591     0.0000    62.0000 </r>
       <r>   -29.6127     0.0000    62.0000 </r>
       <r>   -29.3663     0.0000    62.0000 </r>
       <r>   -29.1199     0.0000    62.0000 </r>
       <r>   -28.8735     0.0000    62.0000 </r>
       <r>   -28.6271     0.0000    62.0000 </r>
       <r>   -28.3807     0.0000    62.0000 </r>
       <r>   -28.1343     0.0000    62.0000 </r>
       <r>   -27.8879     0.0381    62.0094 </r>
       <r>   -27.6415    13.2020    65.2624 </r>
       <r>   -27.3951    52.9287    78.3040 </r>
       <r>   -27.1487    53.4197    91.4667 </r>
       <r>   -26.9023    25.0086    97.6288 </r>
       <r>   -26.6559     1.5063    98.0000 </r>
       <r>   -26.4095     0.0815    98.0201 </r>
       <r>   -26.1631    13.4568   101.3359 </r>
       <r>   -25.9167    60.1182   116.1490 </r>
       <r>   -25.6703    81.4017   136.2065 </r>
       <r>   -25.4239    15.3724   139.9942 </r>
       <r>   -25.1775     0.0234   140.0000 </r>
       <r>   -24.9311     0.0000   140.0000 </r>
       <r>   -24.6847     0.0000   140.0000 </r>
       <r>   -24.4383     0.0000   140.0000 </r>
       <r>   -24.1919     0.0000   140.0000 </r>
       <r>   -23.9455     0.0000   140.0000 </r>
       <r>   -23.6991     0.0000   140.0000 </r>
       <r>   -23.4527     0.0373   140.0092 </r>
       <r>   -23.2063    10.2383   142.5319 </r>
       <r>   -22.9599    39.7499   152.3263 </r>
       <r>   -22.7135    25.4952   158.6084 </r>
       <r>   -22.4671    51.3469   171.2603 </r>
       <r>   -22.2207    20.7692   176.3778 </r>
       <r>   -21.9743    22.0885   181.8204 </r>
       <r>   -21.7279     0.7287   182.0000 </r>
       <r>   -21.4815     0.0000   182.0000 </r>
       <r>   -21.2351     0.0000   182.0000 </r>
       <r>   -20.9887     0.0000   182.0000 </r>
       <r>   -20.7423     0.0000   182.0000 </r>
       <r>   -20.4959     0.0000   182.0000 </r>
       <r>   -20.2495     0.0000   182.0000 </r>
       <r>   -20.0031     0.0000   182.0000 </r>
       <r>   -19.7567     0.0000   182.0000 </r>
       <r>   -19.5103     0.0000   182.0000 </r>
       <r>   -19.2639     0.0000   182.0000 </r>
       <r>   -19.0175     0.0000   182.0000 </r>
       <r>   -18.7711     0.0000   182.0000 </r>
       <r>   -18.5247     0.0000   182.0000 </r>
       <r>   -18.2783     0.0000   182.0000 </r>
       <r>   -18.0319     0.0000   182.0000 </r>
       <r>   -17.7855     0.0000   182.0000 </r>
       <r>   -17.5391     0.0000   182.0000 </r>
       <r>   -17.2927     0.0000   182.0000 </r>
       <r>   -17.0463     0.0000   182.0000 </r>
       <r>   -16.7999     0.0000   182.0000 </r>
       <r>   -16.5535     0.0000   182.0000 </r>
       <r>   -16.3071     0.0000   182.0000 </r>
       <r>   -16.0607     0.0000   182.0000 </r>
       <r>   -15.8143     0.0000   182.0000 </r>
       <r>   -15.5679     0.0000   182.0000 </r>
       <r>   -15.3215     0.0000   182.0000 </r>
       <r>   -15.0751     0.0000   182.0000 </r>
       <r>   -14.8287     0.0000   182.0000 </r>
       <r>   -14.5823     0.0000   182.0000 </r>
       <r>   -14.3359     0.0000   182.0000 </r>
       <r>   -14.0895     0.0000   182.0000 </r>
       <r>   -13.8431     0.0000   182.0000 </r>
       <r>   -13.5967     0.0000   182.0000 </r>
       <r>   -13.3503     0.0000   182.0000 </r>
       <r>   -13.1038     0.0000   182.0000 </r>
       <r>   -12.8574     0.0000   182.0000 </r>
       <r>   -12.6110     0.0000   182.0000 </r>
       <r>   -12.3646     0.0000   182.0000 </r>
       <r>   -12.1182     0.0000   182.0000 </r>
       <r>   -11.8718     0.0000   182.0000 </r>
       <r>   -11.6254     0.0000   182.0000 </r>
       <r>   -11.3790     0.0000   182.0000 </r>
       <r>   -11.1326     0.0000   182.0000 </r>
       <r>   -10.8862     0.0000   182.0000 </r>
       <r>   -10.6398     0.0000   182.0000 </r>
       <r>   -10.3934     0.0000   182.0000 </r>
       <r>   -10.1470     0.0000   182.0000 </r>
       <r>    -9.9006     0.0000   182.0000 </r>
       <r>    -9.6542     0.0000   182.0000 </r>
       <r>    -9.4078     0.0000   182.0000 </r>
       <r>    -9.1614     0.0000   182.0000 </r>
       <r>    -8.9150     0.0000   182.0000 </r>
       <r>    -8.6686     0.1012   182.0249 </r>
       <r>    -8.4222     4.0119   183.0135 </r>
       <r>    -8.1758     7.2976   184.8116 </r>
       <r>    -7.9294     9.4357   187.1366 </r>
       <r>    -7.6830    10.0239   189.6064 </r>
       <r>    -7.4366    17.1348   193.8285 </r>
       <r>    -7.1902    28.4008   200.8264 </r>
       <r>    -6.9438    12.3433   203.8678 </r>
       <r>    -6.6974     8.7996   206.0360 </r>
       <r>    -6.4510     7.9596   207.9973 </r>
       <r>    -6.2046     0.0109   208.0000 </r>
       <r>    -5.9582     0.0000   208.0000 </r>
       <r>    -5.7118     0.0000   208.0000 </r>
       <r>    -5.4654     0.0000   208.0000 </r>
       <r>    -5.2190     0.0000   208.0000 </r>
       <r>    -4.9726     0.0737   208.0182 </r>
       <r>    -4.7262     4.3000   209.0777 </r>
       <r>    -4.4798     3.9971   210.0626 </r>
       <r>    -4.2334     6.9099   211.7652 </r>
       <r>    -3.9870     9.6851   214.1516 </r>
       <r>    -3.7406    11.4779   216.9797 </r>
       <r>    -3.4942    22.9359   222.6312 </r>
       <r>    -3.2478    25.4490   228.9018 </r>
       <r>    -3.0014    24.6309   234.9709 </r>
       <r>    -2.7550    20.3406   239.9829 </r>
       <r>    -2.5086    15.1274   243.7103 </r>
       <r>    -2.2622     8.5380   245.8140 </r>
       <r>    -2.0158     0.7538   245.9998 </r>
       <r>    -1.7694     0.0009   246.0000 </r>
       <r>    -1.5230     0.0000   246.0000 </r>
       <r>    -1.2766     0.0000   246.0000 </r>
       <r>    -1.0302     0.0000   246.0000 </r>
       <r>    -0.7838     0.0000   246.0000 </r>
       <r>    -0.5374     0.0000   246.0000 </r>
       <r>    -0.2910     0.0108   246.0027 </r>
       <r>    -0.0446     0.7951   246.1986 </r>
       <r>     0.2018     3.3569   247.0257 </r>
       <r>     0.4482    10.7038   249.6632 </r>
       <r>     0.6946    12.2463   252.6807 </r>
       <r>     0.9410    16.5749   256.7647 </r>
       <r>     1.1874    21.5663   262.0787 </r>
       <r>     1.4338    28.5755   269.1197 </r>
       <r>     1.6802    26.3807   275.6199 </r>
       <r>     1.9266    29.6107   282.9160 </r>
       <r>     2.1730    34.2003   291.3430 </r>
       <r>     2.4194    33.7791   299.6662 </r>
       <r>     2.6658    43.3941   310.3585 </r>
       <r>     2.9122    48.0618   322.2010 </r>
       <r>     3.1586    54.1450   335.5424 </r>
       <r>     3.4050    58.1587   349.8727 </r>
       <r>     3.6514    57.2525   363.9798 </r>
       <r>     3.8978    57.0803   378.0444 </r>
       <r>     4.1442    54.8421   391.5575 </r>
       <r>     4.3906    47.2281   403.1945 </r>
       <r>     4.6370    37.4573   412.4241 </r>
       <r>     4.8834    29.9791   419.8109 </r>
       <r>     5.1298    28.9316   426.9397 </r>
       <r>     5.3762    16.5149   431.0090 </r>
       <r>     5.6226    17.7948   435.3936 </r>
       <r>     5.8690    10.6930   438.0284 </r>
       <r>     6.1154    11.6258   440.8930 </r>
       <r>     6.3618    15.2526   444.6513 </r>
       <r>     6.6082    15.2486   448.4085 </r>
       <r>     6.8546    18.9277   453.0723 </r>
       <r>     7.1010    21.1250   458.2775 </r>
       <r>     7.3474    18.7648   462.9012 </r>
       <r>     7.5938    22.1946   468.3700 </r>
       <r>     7.8402    24.4958   474.4058 </r>
       <r>     8.0866    21.7382   479.7621 </r>
       <r>     8.3330    32.5339   487.7784 </r>
       <r>     8.5794    37.7307   497.0753 </r>
       <r>     8.8258    48.0413   508.9127 </r>
       <r>     9.0722    48.0831   520.7604 </r>
       <r>     9.3186    51.2559   533.3899 </r>
       <r>     9.5650    53.3104   546.5256 </r>
       <r>     9.8114    54.0076   559.8331 </r>
       <r>    10.0578    53.2185   572.9462 </r>
       <r>    10.3042    12.3682   575.9937 </r>
       <r>    10.5506     0.0255   576.0000 </r>
       <r>    10.7970     0.0000   576.0000 </r>
       <r>    11.0434     0.0000   576.0000 </r>
       <r>    11.2898     0.0000   576.0000 </r>
       <r>    11.5362     0.0000   576.0000 </r>
       <r>    11.7826     0.0000   576.0000 </r>
       <r>    12.0290     0.0000   576.0000 </r>
       <r>    12.2754     0.0000   576.0000 </r>
       <r>    12.5218     0.0000   576.0000 </r>
       <r>    12.7682     0.0000   576.0000 </r>
       <r>    13.0146     0.0000   576.0000 </r>
       <r>    13.2610     0.0000   576.0000 </r>
       <r>    13.5074     0.0000   576.0000 </r>
      </set>
     </set>
    </array>
   </total>
  </dos>
 </calculation>
 <structure name="finalpos" >
  <crystal>
   <varray name="basis" >
    <v>       8.77214439       0.00284022       0.01640821 </v>
    <v>       0.00284671       8.85442585      -0.00346857 </v>
    <v>       0.01644393      -0.00339597       8.78632685 </v>
   </varray>
   <i name="volume">    682.45166927 </i>
   <varray name="rec_basis" >
    <v>       0.11399762      -0.00003673      -0.00021336 </v>
    <v>      -0.00003665       0.11293790       0.00004372 </v>
    <v>      -0.00021290       0.00004465       0.11381362 </v>
   </varray>
  </crystal>
  <varray name="positions" >
   <v>      -0.00072247      -0.01369251       0.00990358 </v>
   <v>       0.24776098      -0.00837896       0.25221066 </v>
   <v>       0.25173887       0.50920928       0.24883561 </v>
   <v>       0.50245004       0.49214143      -0.00432117 </v>
   <v>       0.49521758       0.24676994       0.75196133 </v>
   <v>      -0.00403340       0.50461883       0.50065981 </v>
   <v>       0.50434647       0.74912986       0.74181229 </v>
   <v>      -0.00141341       0.24530435       0.25827915 </v>
   <v>       0.74933272       0.74455955       0.00696463 </v>
   <v>       0.00521474       0.24945081       0.74235741 </v>
   <v>       0.74974762       0.26195007       0.50862102 </v>
   <v>      -0.00509535       0.75019649       0.74614516 </v>
   <v>       0.25571245       0.49959335       0.74868046 </v>
   <v>       0.24689197       0.24661571      -0.00074872 </v>
   <v>       0.50105065       0.25346122       0.24984414 </v>
   <v>       0.74885328      -0.01067729       0.26361843 </v>
   <v>       0.75433455       0.25298765      -0.00717226 </v>
   <v>       0.25846335       0.75487278      -0.00046743 </v>
   <v>       0.25269001       0.25027542       0.49882852 </v>
   <v>       0.24709949       0.74910084       0.49928732 </v>
   <v>       0.24872261       0.25039564       0.24854762 </v>
   <v>       0.25208206       0.00087676       0.00424109 </v>
   <v>       0.00103923       0.24240407       0.00009080 </v>
   <v>       0.75130542       0.24953326       0.25350022 </v>
   <v>       0.75696686      -0.00270165       0.01119906 </v>
   <v>       0.49730505      -0.00021429       0.24472519 </v>
   <v>       0.00028282       0.48976989       0.25124007 </v>
   <v>       0.50650347       0.75210770      -0.00400453 </v>
   <v>      -0.00857945       0.00255476       0.74705935 </v>
   <v>       0.74851740       0.25119457       0.74765662 </v>
   <v>       0.74460987       0.00585940       0.50718119 </v>
   <v>       0.50494791       0.24889455       0.50281512 </v>
   <v>       0.50180719       0.00081931       0.73775136 </v>
   <v>       0.00272580      -0.00249782       0.25235694 </v>
   <v>       0.50184502       0.25692781      -0.00494203 </v>
   <v>       0.24791051       0.74848727       0.24933220 </v>
   <v>       0.25170897       0.50257591       0.00275734 </v>
   <v>      -0.00013324       0.75193833       0.00296009 </v>
   <v>       0.75775835       0.73763468       0.25644976 </v>
   <v>       0.74986807       0.50339575       0.00270083 </v>
   <v>       0.50132413       0.50379341       0.25278590 </v>
   <v>       0.25455005       0.25464695       0.74926666 </v>
   <v>       0.23927356      -0.00162116       0.49505310 </v>
   <v>      -0.00283398       0.24776663       0.50006805 </v>
   <v>       0.25088489       0.75044804       0.74942392 </v>
   <v>       0.25273431       0.50055620       0.49489215 </v>
   <v>      -0.00980019       0.75400062       0.49645898 </v>
   <v>      -0.00553939       0.50064968       0.74499630 </v>
   <v>       0.74561644       0.74558449       0.74619722 </v>
   <v>       0.74903787       0.50335595       0.50038576 </v>
   <v>       0.50783510       0.74583165       0.50507688 </v>
   <v>       0.50568977       0.50176520       0.74567828 </v>
   <v>       0.51285530       0.01570088      -0.01576296 </v>
   <v>      -0.00014601       0.51318225      -0.01305740 </v>
   <v>       0.50451038       0.74240065       0.26476788 </v>
   <v>       0.24838664       0.00566007       0.74321150 </v>
   <v>       0.47711457      -0.01494568       0.49996681 </v>
   <v>       0.73910890      -0.02061327       0.76815128 </v>
   <v>       0.00187442       0.76540384       0.25609691 </v>
   <v>       0.73364276       0.51064488       0.26164765 </v>
   <v>       0.01602605      -0.00360949       0.48786255 </v>
   <v>       0.50721622       0.51501743       0.50146316 </v>
   <v>       0.74323403       0.52005692       0.74441890 </v>
   <v>       0.75057077       0.72687980       0.49203296 </v>
  </varray>
 </structure>
</modeling>
