HECN                                    
           1
    11.240000    0.000000    0.000000
     0.000000   11.240000    0.000000
     0.000000    0.000000   11.240000
   Ti   Ta   Hf   N    C    Mo   V 
   7   6   7  13  19   6   6
Direct configuration=     1
   0.00000000  0.00000000  0.00000000
   0.25000000  0.00000000  0.25000000
   0.25000000  0.50000000  0.25000000
   0.50000000  0.50000000  0.00000000
   0.50000000  0.25000000  0.75000004
   0.00000000  0.50000000  0.50000000
   0.50000000  0.75000004  0.75000004
   0.00000000  0.25000000  0.25000000
   0.75000004  0.75000004  0.00000000
   0.00000000  0.25000000  0.75000004
   0.75000004  0.25000000  0.50000000
   0.00000000  0.75000004  0.75000004
   0.25000000  0.50000000  0.75000004
   0.25000000  0.25000000  0.00000000
   0.50000000  0.25000000  0.25000000
   0.75000004  0.00000000  0.25000000
   0.75000004  0.25000000  0.00000000
   0.25000000  0.75000004  0.00000000
   0.25000000  0.25000000  0.50000000
   0.25000000  0.75000004  0.50000000
   0.25000000  0.25000000  0.25000000
   0.25000000  0.00000000  0.00000000
   0.00000000  0.25000000  0.00000000
   0.75000004  0.25000000  0.25000000
   0.75000004  0.00000000  0.00000000
   0.50000000  0.00000000  0.25000000
   0.00000000  0.50000000  0.25000000
   0.50000000  0.75000004  0.00000000
   0.00000000  0.00000000  0.75000004
   0.75000004  0.25000000  0.75000004
   0.75000004  0.00000000  0.50000000
   0.50000000  0.25000000  0.50000000
   0.50000000  0.00000000  0.75000004
   0.00000000  0.00000000  0.25000000
   0.50000000  0.25000000  0.00000000
   0.25000000  0.75000004  0.25000000
   0.25000000  0.50000000  0.00000000
   0.00000000  0.75000004  0.00000000
   0.75000004  0.75000004  0.25000000
   0.75000004  0.50000000  0.00000000
   0.50000000  0.50000000  0.25000000
   0.25000000  0.25000000  0.75000004
   0.25000000  0.00000000  0.50000000
   0.00000000  0.25000000  0.50000000
   0.25000000  0.75000004  0.75000004
   0.25000000  0.50000000  0.50000000
   0.00000000  0.75000004  0.50000000
   0.00000000  0.50000000  0.75000004
   0.75000004  0.75000004  0.75000004
   0.75000004  0.50000000  0.50000000
   0.50000000  0.75000004  0.50000000
   0.50000000  0.50000000  0.75000004
   0.50000000  0.00000000  0.00000000
   0.00000000  0.50000000  0.00000000
   0.50000000  0.75000004  0.25000000
   0.25000000  0.00000000  0.75000004
   0.50000000  0.00000000  0.50000000
   0.75000004  0.00000000  0.75000004
   0.00000000  0.75000004  0.25000000
   0.75000004  0.50000000  0.25000000
   0.00000000  0.00000000  0.50000000
   0.50000000  0.50000000  0.50000000
   0.75000004  0.50000000  0.75000004
   0.75000004  0.75000004  0.50000000
HECN                                    
           1
     8.107678   -0.000302    0.000795
    -0.000302    8.097758    0.001082
     0.000795    0.001082    8.102808
   Ti   Ta   Hf   N    C    Mo   V 
   7   6   7  13  19   6   6
Direct configuration=     2
   0.00012938 -0.00190543  0.00067942
   0.24932753 -0.00233862  0.25149524
   0.25086451  0.50233893  0.24987376
   0.50023949  0.49923520  0.00008134
   0.49898129  0.25006374  0.75088715
  -0.00045028  0.50058633  0.50082254
   0.50037140  0.74978568  0.74866269
  -0.00063001  0.24843413  0.25271613
   0.75160177  0.74777914 -0.00001466
   0.00140778  0.25155106  0.74723535
   0.75237860  0.25185674  0.50143054
  -0.00057924  0.74863027  0.74952063
   0.25040456  0.50020450  0.75020119
   0.25095462  0.25058948 -0.00208437
   0.50028331  0.25100443  0.24928497
   0.75035295 -0.00246247  0.25068664
   0.74884389  0.25142355 -0.00129507
   0.24940716  0.74952822  0.00016237
   0.24890682  0.24942083  0.50200563
   0.25020924  0.75057072  0.49984307
   0.25020670  0.24997388  0.24966554
   0.25005471  0.00019701  0.00027916
   0.00007245  0.24953479  0.00006864
   0.74966605  0.24710045  0.24974560
   0.74988734  0.00034008  0.00209054
   0.50241993  0.00271006  0.24993884
   0.00044964  0.49643632  0.24986593
   0.50010505  0.75014871 -0.00030398
  -0.00037540  0.00032722  0.75070337
   0.75182569  0.24916813  0.75011162
   0.74929309  0.00316839  0.49793171
   0.50017883  0.24932911  0.49775246
   0.50034260  0.00014936  0.75003583
  -0.00193307  0.00352987  0.24943933
   0.50018887  0.24897280  0.00191439
   0.25103399  0.75003011  0.24967615
   0.24937772  0.49989256 -0.00181248
  -0.00105663  0.74964583 -0.00270634
   0.74895323  0.75210408  0.24722490
   0.75073215  0.50082376  0.00024071
   0.49993626  0.49913317  0.24990873
   0.24771248  0.25161246  0.75032798
   0.25124556  0.00032698  0.50081816
  -0.00103945  0.25022473  0.50001573
   0.24786192  0.74823066  0.75034764
   0.24964462  0.49962035  0.50193579
   0.00145453  0.74969149  0.50310264
   0.00211869  0.49978035  0.75084312
   0.75229683  0.75129243  0.75270558
   0.75019019  0.49678157  0.49979935
   0.49863215  0.75130307  0.49910591
   0.49746479  0.49992194  0.75007756
   0.50027727  0.00165146 -0.00061917
  -0.00053970  0.50205949 -0.00196713
   0.50023123  0.74789629  0.25228372
   0.25047727 -0.00011434  0.74767193
   0.49795032 -0.00265381  0.50072403
   0.74942316 -0.00233060  0.74967999
  -0.00009327  0.75138433  0.25012832
   0.74869821  0.50255597  0.25010895
   0.00146972 -0.00037032  0.49911947
   0.50058293  0.50192178  0.49999396
   0.74976619  0.50176506  0.74996204
   0.74981105  0.74843723  0.49986984
HECN                                    
           1
     8.884661   -0.000227    0.000598
    -0.000227    8.877201    0.000813
     0.000598    0.000813    8.880999
   Ti   Ta   Hf   N    C    Mo   V 
   7   6   7  13  19   6   6
Direct configuration=     3
   0.00008494 -0.00124934  0.00044555
   0.24955886 -0.00153334  0.25098061
   0.25056719  0.50153360  0.24991734
   0.50015714  0.49949853  0.00005333
   0.49933164  0.25004185  0.75058187
  -0.00029541  0.50038450  0.50053952
   0.50024364  0.74985942  0.74912287
  -0.00041325  0.24897340  0.25178143
   0.75105099  0.74854379 -0.00000966
   0.00092355  0.25101687  0.74818678
   0.75156067  0.25121749  0.50093847
  -0.00038004  0.74910188  0.74968551
   0.25026544  0.50013409  0.75013200
   0.25062626  0.25038641 -0.00136709
   0.50018585  0.25065856  0.24953106
   0.75023164 -0.00161459  0.25045027
   0.74924142  0.25093337 -0.00084942
   0.24961104  0.74969069  0.00010646
   0.24928282  0.24962035  0.50131544
   0.25013727  0.75037422  0.49989710
   0.25013561  0.24998285  0.24978063
   0.25003590  0.00012919  0.00018311
   0.00004754  0.24969497  0.00004500
   0.74978093  0.24809878  0.24983300
   0.74992616  0.00022309  0.00137121
   0.50158771  0.00177693  0.24996009
   0.00029505  0.49766331  0.24991191
   0.50006891  0.75009751 -0.00019937
  -0.00024629  0.00021459  0.75046136
   0.75119789  0.24945453  0.75007325
   0.74953609  0.00207740  0.49864352
   0.50011727  0.24956000  0.49852580
   0.50022478  0.00009793  0.75002353
  -0.00126838  0.00231451  0.24963235
   0.50012400  0.24932656  0.00125562
   0.25067840  0.75001973  0.24978762
   0.24959166  0.49992948 -0.00118885
  -0.00069336  0.74976767 -0.00177516
   0.74931310  0.75137953  0.24817986
   0.75048038  0.50054013  0.00015795
   0.49995819  0.49943162  0.24994009
   0.24849911  0.25105732  0.75021514
   0.25081725  0.00021442  0.50053669
  -0.00068200  0.25014737  0.50001030
   0.24859721  0.74883991  0.75022788
   0.24976690  0.49975116  0.50126967
   0.00095444  0.74979785  0.50203508
   0.00139014  0.49985599  0.75055309
   0.75150707  0.75084755  0.75177476
   0.75012484  0.49788969  0.49986825
   0.49910249  0.75085440  0.49941357
   0.49833662  0.49994886  0.75005080
   0.50018188  0.00108282 -0.00040603
  -0.00035420  0.50135031 -0.00129018
   0.50015182  0.74862073  0.25149782
   0.25031307 -0.00007509  0.74847303
   0.49865524 -0.00174002  0.50047471
   0.74962156 -0.00152817  0.74978999
  -0.00006121  0.75090771  0.25008423
   0.74914587  0.50167595  0.25007153
   0.00096428 -0.00024288  0.49942248
   0.50038244  0.50126009  0.49999615
   0.74984659  0.50115734  0.74997519
   0.74987606  0.74897532  0.49991455
HECN                                    
           1
     8.821600   -0.000233    0.000614
    -0.000233    8.813940    0.000835
     0.000614    0.000835    8.817839
   Ti   Ta   Hf   N    C    Mo   V 
   7   6   7  13  19   6   6
Direct configuration=     4
   0.00008823 -0.00129792  0.00046287
   0.24954173 -0.00159296  0.25101872
   0.25058921  0.50159322  0.24991411
   0.50016324  0.49947903  0.00005540
   0.49930569  0.25004347  0.75060448
  -0.00030688  0.50039944  0.50056048
   0.50025310  0.74985396  0.74908879
  -0.00042930  0.24893348  0.25185065
   0.75109178  0.74848718 -0.00001003
   0.00095941  0.25105642  0.74811633
   0.75162125  0.25126481  0.50097491
  -0.00039480  0.74906696  0.74967330
   0.25027575  0.50013931  0.75013713
   0.25065058  0.25040144 -0.00142020
   0.50019307  0.25068417  0.24951284
   0.75024063 -0.00167737  0.25046777
   0.74921197  0.25096966 -0.00088242
   0.24959594  0.74967866  0.00011060
   0.24925497  0.24960558  0.50136655
   0.25014260  0.75038877  0.49989310
   0.25014087  0.24998219  0.24977211
   0.25003730  0.00013421  0.00019022
   0.00004939  0.24968311  0.00004675
   0.74977243  0.24802487  0.24982652
   0.74992329  0.00023175  0.00142448
   0.50164935  0.00184601  0.24995852
   0.00030650  0.49757247  0.24990850
   0.50007159  0.75010130 -0.00020712
  -0.00025585  0.00022293  0.75047928
   0.75124439  0.24943333  0.75007609
   0.74951809  0.00215817  0.49859081
   0.50012182  0.24954290  0.49846853
   0.50023351  0.00010174  0.75002444
  -0.00131761  0.00240449  0.24961806
   0.50012881  0.24930037  0.00130440
   0.25070474  0.75002050  0.24977937
   0.24957581  0.49992674 -0.00123503
  -0.00072026  0.74975865 -0.00184411
   0.74928644  0.75143317  0.24810914
   0.75049903  0.50056113  0.00016408
   0.49995656  0.49940952  0.24993777
   0.24844085  0.25109842  0.75022349
   0.25084898  0.00022275  0.50055754
  -0.00070848  0.25015310  0.50001070
   0.24854276  0.74879481  0.75023674
   0.24975784  0.49974148  0.50131900
   0.00099148  0.74978998  0.50211413
   0.00144410  0.49985039  0.75057456
   0.75156556  0.75088049  0.75184369
   0.75012968  0.49780765  0.49986314
   0.49906765  0.75088762  0.49939079
   0.49827205  0.49994686  0.75005278
   0.50018894  0.00112492 -0.00042181
  -0.00036794  0.50140281 -0.00134031
   0.50015770  0.74856710  0.25155602
   0.25032523 -0.00007799  0.74841371
   0.49860303 -0.00180767  0.50049317
   0.74960686 -0.00158758  0.74978184
  -0.00006358  0.75094300  0.25008749
   0.74911271  0.50174111  0.25007430
   0.00100172 -0.00025231  0.49940005
   0.50039729  0.50130907  0.49999599
   0.74984063  0.50120233  0.74997422
   0.74987124  0.74893548  0.49991124
HECN                                    
           1
     8.797316   -0.000236    0.000620
    -0.000236    8.789580    0.000843
     0.000620    0.000843    8.793518
   Ti   Ta   Hf   N    C    Mo   V 
   7   6   7  13  19   6   6
Direct configuration=     5
   0.00008951 -0.00131675  0.00046959
   0.24953509 -0.00161608  0.25103349
   0.25059775  0.50161635  0.24991286
   0.50016561  0.49947147  0.00005620
   0.49929563  0.25004410  0.75061324
  -0.00031133  0.50040524  0.50056861
   0.50025677  0.74985184  0.74907557
  -0.00043552  0.24891799  0.25187749
   0.75110760  0.74846522 -0.00001018
   0.00097332  0.25107176  0.74808901
   0.75164474  0.25128317  0.50098904
  -0.00040052  0.74905342  0.74966856
   0.25027974  0.50014133  0.75013911
   0.25066001  0.25040727 -0.00144080
   0.50019586  0.25069410  0.24950577
   0.75024411 -0.00170171  0.25047456
   0.74920055  0.25098373 -0.00089522
   0.24959009  0.74967399  0.00011221
   0.24924417  0.24959985  0.50138637
   0.25014467  0.75039441  0.49989155
   0.25014292  0.24998193  0.24976880
   0.25003784  0.00013616  0.00019298
   0.00005010  0.24967851  0.00004743
   0.74976913  0.24799620  0.24982401
   0.74992217  0.00023511  0.00144514
   0.50167325  0.00187281  0.24995792
   0.00031094  0.49753723  0.24990718
   0.50007263  0.75010277 -0.00021012
  -0.00025956  0.00022616  0.75048623
   0.75126242  0.24942510  0.75007720
   0.74951111  0.00218950  0.49857037
   0.50012359  0.24953627  0.49844632
   0.50023689  0.00010322  0.75002480
  -0.00133670  0.00243939  0.24961251
   0.50013067  0.24929021  0.00132332
   0.25071495  0.75002080  0.24977617
   0.24956966  0.49992568 -0.00125294
  -0.00073070  0.74975515 -0.00187086
   0.74927610  0.75145398  0.24808172
   0.75050626  0.50056927  0.00016645
   0.49995593  0.49940095  0.24993687
   0.24841826  0.25111436  0.75022673
   0.25086128  0.00022599  0.50056562
  -0.00071874  0.25015532  0.50001085
   0.24852163  0.74877731  0.75024018
   0.24975433  0.49973772  0.50133813
   0.00100585  0.74978693  0.50214479
   0.00146502  0.49984822  0.75058289
   0.75158825  0.75089326  0.75187043
   0.75013155  0.49777583  0.49986116
   0.49905414  0.75090050  0.49938196
   0.49824701  0.49994609  0.75005355
   0.50019168  0.00114124 -0.00042793
  -0.00037327  0.50142317 -0.00135975
   0.50015998  0.74854630  0.25157859
   0.25032994 -0.00007912  0.74839070
   0.49858278 -0.00183391  0.50050033
   0.74960117 -0.00161062  0.74977868
  -0.00006450  0.75095669  0.25008876
   0.74909985  0.50176638  0.25007538
   0.00101623 -0.00025597  0.49939134
   0.50040305  0.50132807  0.49999593
   0.74983832  0.50121978  0.74997384
   0.74986938  0.74892003  0.49990995
HECN                                    
           1
     8.753876    0.007614   -0.004174
     0.007608    8.816232    0.005801
    -0.004171    0.005811    8.747697
   Ti   Ta   Hf   N    C    Mo   V 
   7   6   7  13  19   6   6
Direct configuration=     6
   0.00085758 -0.00552941  0.00262979
   0.24905506 -0.00504232  0.25259318
   0.25213636  0.50575920  0.24991321
   0.50149030  0.49728762 -0.00049044
   0.49927543  0.24916049  0.75040553
  -0.00271179  0.50280083  0.50098501
   0.50256335  0.74936303  0.74623395
  -0.00060304  0.24704712  0.25575320
   0.75130358  0.74515133  0.00015099
  -0.00041820  0.25149422  0.74487307
   0.75292217  0.25589552  0.50520698
  -0.00375588  0.74876812  0.74732517
   0.25395885  0.49980721  0.75013934
   0.24977477  0.24618420 -0.00090430
   0.49930480  0.25352974  0.25107380
   0.75073828 -0.00713759  0.25285316
   0.74961974  0.25181677 -0.00512530
   0.25163173  0.75316004  0.00223981
   0.25069358  0.24825723  0.50069747
   0.25003654  0.75144762  0.49772256
   0.24847579  0.25031288  0.24921162
   0.24740813 -0.00025377  0.00374525
   0.00059681  0.24567471  0.00018823
   0.75093494  0.25128403  0.25116592
   0.75304615 -0.00153671  0.00067225
   0.49787185  0.00152073  0.25003120
  -0.00054476  0.49872805  0.25302821
   0.50192957  0.74695104 -0.00423113
  -0.00069586  0.00039618  0.74988779
   0.74810555  0.25331123  0.74834838
   0.75285685 -0.00043166  0.49993843
   0.50261148  0.25321723  0.50281186
   0.50044820  0.00009685  0.74969668
   0.00376448 -0.00051793  0.25058893
   0.50021725  0.25173348 -0.00421348
   0.24764454  0.74945223  0.24988672
   0.25153447  0.50087112  0.00310093
  -0.00342799  0.75291578  0.00163933
   0.75285635  0.74359602  0.25263086
   0.74832726  0.50420476  0.00088796
   0.50162761  0.50426170  0.25195114
   0.25177767  0.25123121  0.75050287
   0.24829305 -0.00027501  0.49914325
  -0.00326277  0.24922611  0.50023259
   0.25140016  0.74896356  0.75035109
   0.25086876  0.50002334  0.49723104
  -0.00684569  0.75101230  0.49896353
  -0.00361722  0.49990214  0.74780409
   0.74815703  0.74734481  0.74716074
   0.74855973  0.50240669  0.49935902
   0.50681158  0.74759773  0.50165473
   0.50314826  0.50028013  0.74775950
   0.50030497  0.00585256 -0.00203930
  -0.00284477  0.50514485 -0.00427411
   0.50048921  0.74323440  0.25654653
   0.25073505  0.00040088  0.74520540
   0.49375545 -0.00742652  0.50226308
   0.74826263 -0.00648721  0.74922405
  -0.00022975  0.75448103  0.25086882
   0.74553616  0.50796149  0.25080847
   0.00430954 -0.00093730  0.49661048
   0.50330964  0.50561472  0.50054020
   0.74756556  0.50536220  0.74988002
   0.75005454  0.74407763  0.49896134
HECN                                    
           1
     8.733356    0.011322   -0.006438
     0.011313    8.828821    0.008143
    -0.006434    0.008157    8.726053
   Ti   Ta   Hf   N    C    Mo   V 
   7   6   7  13  19   6   6
Direct configuration=     7
   0.00122453 -0.00751418  0.00365684
   0.24882904 -0.00665605  0.25333456
   0.25286499  0.50770954  0.24991267
   0.50211992  0.49625876 -0.00074907
   0.49926616  0.24874443  0.75030713
  -0.00385220  0.50392989  0.50118146
   0.50365775  0.74913262  0.74488539
  -0.00068076  0.24616510  0.25759396
   0.75139805  0.74359059  0.00022845
  -0.00107978  0.25169461  0.74334556
   0.75352772  0.25806594  0.50720889
  -0.00534916  0.74863581  0.74621165
   0.25570546  0.49964831  0.75014049
   0.24935646  0.24419566 -0.00064865
   0.49888102  0.25486508  0.25181736
   0.75097577 -0.00969835  0.25398418
   0.74981727  0.25221002 -0.00713400
   0.25259998  0.75480029  0.00324966
   0.25138201  0.24762452  0.50037109
   0.24998421  0.75194424  0.49669235
   0.24768411  0.25046959  0.24894653
   0.24616090 -0.00043724  0.00543141
   0.00085806  0.24378893  0.00025630
   0.75148731  0.25283152  0.25180253
   0.75452966 -0.00237222  0.00030655
   0.49606748  0.00135652  0.25006510
  -0.00095065  0.49928837  0.25450963
   0.50281135  0.74546709 -0.00613911
  -0.00090320  0.00047659  0.74960348
   0.74660489  0.25514312  0.74752563
   0.75444655 -0.00166783  0.50058960
   0.50379206  0.25494848  0.50488441
   0.50054842  0.00009385  0.74954094
   0.00618752 -0.00191304  0.25105469
   0.50025588  0.25288553 -0.00684316
   0.24618728  0.74918574  0.24993856
   0.25246789  0.50131436  0.00516855
  -0.00470882  0.75440441  0.00330453
   0.75456040  0.73989275  0.25479397
   0.74729154  0.50591755  0.00122901
   0.50241962  0.50654952  0.25290671
   0.25337241  0.25128474  0.75063483
   0.24707375 -0.00050947  0.49846732
  -0.00446997  0.24878954  0.50033746
   0.25276656  0.74905002  0.75040445
   0.25139659  0.50015848  0.49528107
  -0.01057417  0.75159354  0.49745059
  -0.00603051  0.49993043  0.74648329
   0.74652850  0.74567646  0.74492449
   0.74781149  0.50458829  0.49911894
   0.51049604  0.74603846  0.50273681
   0.50547416  0.50043598  0.74667141
   0.50035635  0.00807165 -0.00280565
  -0.00402032  0.50689933 -0.00565957
   0.50064903  0.74073139  0.25890697
   0.25092632  0.00062761  0.74369289
   0.49146672 -0.01005868  0.50310033
   0.74762914 -0.00878302  0.74896165
  -0.00030948  0.75614061  0.25123823
   0.74384204  0.51088026  0.25115398
   0.00587245 -0.00125881  0.49529108
   0.50468774  0.50763205  0.50079824
   0.74648491  0.50731398  0.74983378
   0.75014423  0.74179738  0.49851225
HECN                                    
           1
     8.804412    0.004815   -0.001207
     0.004789    8.860865    0.006075
    -0.001189    0.006049    8.825484
   Ti   Ta   Hf   N    C    Mo   V 
   7   6   7  13  19   6   6
Direct configuration=     8
   0.00065196 -0.01153636  0.00598159
   0.24863687 -0.00801793  0.25517266
   0.25277464  0.50967320  0.25011623
   0.50256308  0.49365110 -0.00177280
   0.49761432  0.24748416  0.75036582
  -0.00546189  0.50521420  0.50057483
   0.50494272  0.74882225  0.74286806
  -0.00218182  0.24423613  0.25878546
   0.74916536  0.74385721  0.00159745
   0.00135141  0.25166946  0.74274447
   0.75054926  0.26240573  0.50720418
  -0.00603856  0.74858335  0.74634454
   0.25641000  0.49984810  0.74994255
   0.24815386  0.24423509 -0.00058995
   0.50131507  0.25659776  0.25115237
   0.74996038 -0.01214484  0.25587035
   0.75159262  0.25247409 -0.00739448
   0.25464216  0.75437127  0.00043894
   0.25149313  0.24908022  0.50080076
   0.24926985  0.75021096  0.49999607
   0.24752380  0.25084376  0.24925851
   0.24510137 -0.00071860  0.00747971
  -0.00006693  0.24216020  0.00060796
   0.75206370  0.25232438  0.25220417
   0.75572360 -0.00264813  0.00131702
   0.49543832  0.00158949  0.24987441
  -0.00180006  0.49806534  0.25498096
   0.50437492  0.74627232 -0.00739000
  -0.00121346  0.00096199  0.74901821
   0.74528458  0.25620697  0.74742166
   0.75518646 -0.00143559  0.50174055
   0.50547987  0.25514955  0.50580877
   0.50025082 -0.00014240  0.74871917
   0.00597011 -0.00328186  0.25208524
   0.50074602  0.25517402 -0.00648967
   0.24519156  0.74868761  0.25022255
   0.25221278  0.50169674  0.00547554
  -0.00316335  0.75461742  0.00350643
   0.75617056  0.73721129  0.25592578
   0.74640378  0.50363580  0.00190008
   0.50329642  0.50556328  0.25370364
   0.25440276  0.25229400  0.75004542
   0.24442692 -0.00142236  0.49687364
  -0.00241746  0.24824823  0.50027875
   0.25288604  0.74882024  0.74966201
   0.25240702  0.50069892  0.49476574
  -0.01207559  0.75313686  0.49560221
  -0.00683028  0.50027166  0.74549931
   0.74537555  0.74377129  0.74320742
   0.74740165  0.50635488  0.49872228
   0.51118276  0.74476690  0.50409829
   0.50716675  0.50080905  0.74532215
   0.50164240  0.01293546 -0.00472042
  -0.00486161  0.51076715 -0.00769429
   0.50298074  0.73864219  0.26278429
   0.25009247  0.00155700  0.74201227
   0.48804313 -0.01443837  0.50338063
   0.74752184 -0.01324360  0.74870065
   0.00029382  0.76013662  0.25264767
   0.74042635  0.51540500  0.25241178
   0.00987300 -0.00232873  0.49226216
   0.50781665  0.51298784  0.50060574
   0.74418193  0.51304410  0.74970150
   0.75048453  0.73413760  0.49626167
HECN                                    
           1
     8.792336    0.005921   -0.002096
     0.005898    8.855419    0.006426
    -0.002081    0.006407    8.808585
   Ti   Ta   Hf   N    C    Mo   V 
   7   6   7  13  19   6   6
Direct configuration=     9
   0.00074923 -0.01085527  0.00559105
   0.24866962 -0.00778737  0.25486382
   0.25278964  0.50934068  0.25008194
   0.50248859  0.49409267 -0.00160062
   0.49789296  0.24769777  0.75035585
  -0.00519074  0.50499694  0.50067655
   0.50472593  0.74887473  0.74320720
  -0.00192840  0.24456292  0.25858516
   0.74954186  0.74381228  0.00136717
   0.00094150  0.25167344  0.74284573
   0.75105083  0.26167120  0.50720449
  -0.00592232  0.74859232  0.74632214
   0.25629118  0.49981419  0.74997587
   0.24835660  0.24422856 -0.00059993
   0.50090445  0.25630408  0.25126429
   0.75013206 -0.01173050  0.25555340
   0.75129327  0.25242916 -0.00735054
   0.25429765  0.75444378  0.00091147
   0.25147425  0.24883368  0.50072851
   0.24939083  0.75050443  0.49944091
   0.24755081  0.25078041  0.24920606
   0.24528023 -0.00067090  0.00713542
   0.00008925  0.24243611  0.00054884
   0.75196664  0.25241017  0.25213676
   0.75552246 -0.00260160  0.00114735
   0.49554434  0.00155013  0.24990638
  -0.00165666  0.49827254  0.25490172
   0.50411110  0.74613582 -0.00717968
  -0.00116127  0.00087986  0.74911651
   0.74550702  0.25602699  0.74743896
   0.75506181 -0.00147506  0.50154721
   0.50519540  0.25511525  0.50565360
   0.50030094 -0.00010232  0.74885724
   0.00600704 -0.00305008  0.25191210
   0.50066314  0.25478642 -0.00654911
   0.24535951  0.74877208  0.25017475
   0.25225577  0.50163201  0.00542391
  -0.00342390  0.75458115  0.00347265
   0.75589956  0.73766511  0.25573586
   0.74655380  0.50402227  0.00178731
   0.50314882  0.50573015  0.25356985
   0.25422887  0.25212299  0.75014453
   0.24487309 -0.00126738  0.49714121
  -0.00276342  0.24833964  0.50028885
   0.25286585  0.74885917  0.74978679
   0.25223656  0.50060730  0.49485242
  -0.01182286  0.75287579  0.49591260
  -0.00669560  0.50021402  0.74566456
   0.74556998  0.74409412  0.74349592
   0.74747048  0.50605579  0.49878882
   0.51106729  0.74498208  0.50386963
   0.50688123  0.50074572  0.74554904
   0.50142479  0.01211174 -0.00439873
  -0.00472048  0.51011236 -0.00735262
   0.50258831  0.73899552  0.26213307
   0.25023276  0.00139980  0.74229456
   0.48862087 -0.01369629  0.50333336
   0.74754047 -0.01248822  0.74874467
   0.00019175  0.75945980  0.25241073
   0.74100173  0.51463916  0.25219989
   0.00919840 -0.00214793  0.49277159
   0.50728848  0.51208051  0.50063819
   0.74456943  0.51207406  0.74972326
   0.75042790  0.73543476  0.49664020
HECN                                    
           1
     8.758644   -0.004637    0.005817
    -0.004727    8.816719    0.001834
     0.005845    0.001824    8.787167
   Ti   Ta   Hf   N    C    Mo   V 
   7   6   7  13  19   6   6
Direct configuration=    10
  -0.00055836 -0.01474075  0.00813820
   0.24871347 -0.00871867  0.25647967
   0.25196618  0.51024624  0.25029312
   0.50249572  0.49132876 -0.00311776
   0.49516667  0.24631439  0.75129015
  -0.00648795  0.50572975  0.49969736
   0.50564798  0.74881745  0.74165882
  -0.00298661  0.24285678  0.25966034
   0.74751503  0.74515978  0.00307448
   0.00471603  0.25168701  0.74213143
   0.74891769  0.26628686  0.50677562
  -0.00647932  0.74855027  0.74685176
   0.25627278  0.49952909  0.74969535
   0.24695090  0.24579180 -0.00009875
   0.50323130  0.25655742  0.25030039
   0.74832178 -0.01281077  0.25803833
   0.75323186  0.25159248 -0.00718400
   0.25686354  0.75317045 -0.00158856
   0.25244520  0.25083780  0.50043000
   0.24812566  0.74850153  0.50189338
   0.24797783  0.25112986  0.24965961
   0.24554040 -0.00061971  0.00836173
  -0.00089952  0.24171798  0.00077568
   0.75233978  0.25031239  0.25236873
   0.75551118 -0.00260382  0.00297357
   0.49622870  0.00157505  0.24966943
  -0.00226044  0.49568584  0.25413415
   0.50557351  0.74874909 -0.00725463
  -0.00201546  0.00164890  0.74860156
   0.74585432  0.25536450  0.74743456
   0.75412380  0.00040594  0.50280538
   0.50627819  0.25360333  0.50467589
   0.50017553 -0.00042671  0.74744262
   0.00365091 -0.00362412  0.25278229
   0.50104147  0.25696563 -0.00419434
   0.24606566  0.74844973  0.25049100
   0.25097917  0.50182037  0.00403137
  -0.00149658  0.75320689  0.00228637
   0.75664282  0.73800155  0.25483520
   0.74672942  0.50158038  0.00237855
   0.50333899  0.50371768  0.25375182
   0.25407267  0.25345483  0.74981843
   0.24293109 -0.00207978  0.49619903
  -0.00163225  0.24799234  0.50039812
   0.25180459  0.74861437  0.74941246
   0.25301331  0.50103837  0.49584267
  -0.01057084  0.75431748  0.49567803
  -0.00595312  0.50051934  0.74578616
   0.74588876  0.74348662  0.74369063
   0.74808879  0.50590953  0.49849273
   0.50921042  0.74500307  0.50461686
   0.50663888  0.50119763  0.74484982
   0.50407721  0.01693897 -0.00703565
  -0.00475462  0.51408292 -0.00988479
   0.50483592  0.73926152  0.26583068
   0.24882376  0.00355186  0.74047442
   0.48446255 -0.01757845  0.50274670
   0.74730489 -0.01874500  0.75000520
   0.00145339  0.76357106  0.25434612
   0.73751507  0.51657286  0.25374608
   0.01361358 -0.00367272  0.48926413
   0.51018438  0.51709557  0.50033544
   0.74261470  0.51921339  0.74944262
   0.75092831  0.72690644  0.49351490
HECN                                    
           1
     8.764707   -0.002737    0.004393
    -0.002815    8.823683    0.002661
     0.004419    0.002649    8.791021
   Ti   Ta   Hf   N    C    Mo   V 
   7   6   7  13  19   6   6
Direct configuration=    11
  -0.00032089 -0.01403845  0.00767888
   0.24870602 -0.00855051  0.25618828
   0.25211477  0.51008273  0.25025481
   0.50249479  0.49182845 -0.00284383
   0.49565961  0.24656492  0.75112130
  -0.00625394  0.50559768  0.49987371
   0.50548118  0.74882775  0.74193828
  -0.00279491  0.24316527  0.25946638
   0.74788114  0.74491651  0.00276605
   0.00403407  0.25168381  0.74226089
   0.74930194  0.26545313  0.50685220
  -0.00637861  0.74855794  0.74675614
   0.25627612  0.49958065  0.74974598
   0.24720457  0.24550952 -0.00018953
   0.50281076  0.25651122  0.25047462
   0.74864943 -0.01261537  0.25758989
   0.75288188  0.25174327 -0.00721365
   0.25639991  0.75340027 -0.00113705
   0.25226932  0.25047540  0.50048382
   0.24835504  0.74886357  0.50145097
   0.24790069  0.25106656  0.24957783
   0.24549359 -0.00062913  0.00814056
  -0.00072071  0.24184796  0.00073466
   0.75227287  0.25069144  0.25232715
   0.75551351 -0.00260358  0.00264414
   0.49610503  0.00157042  0.24971229
  -0.00215094  0.49615356  0.25427275
   0.50530876  0.74827646 -0.00724112
  -0.00186141  0.00151014  0.74869424
   0.74579173  0.25548416  0.74743547
   0.75429304  0.00006606  0.50257810
   0.50608277  0.25387645  0.50485258
   0.50019803 -0.00036792  0.74769781
   0.00407679 -0.00351994  0.25262499
   0.50097304  0.25657146 -0.00461925
   0.24593823  0.74850781  0.25043410
   0.25120951  0.50178674  0.00428234
  -0.00184463  0.75345496  0.00250080
   0.75650834  0.73794066  0.25499775
   0.74669833  0.50202163  0.00227216
   0.50330510  0.50408135  0.25371921
   0.25410054  0.25321418  0.74987710
   0.24328192 -0.00193244  0.49636875
  -0.00183649  0.24805486  0.50037863
   0.25199629  0.74865888  0.74947983
   0.25287307  0.50096020  0.49566413
  -0.01079736  0.75405666  0.49572041
  -0.00608729  0.50046399  0.74576432
   0.74583134  0.74359633  0.74365561
   0.74797708  0.50593586  0.49854625
   0.50954596  0.74499961  0.50448176
   0.50668245  0.50111607  0.74497587
   0.50359659  0.01606618 -0.00656001
  -0.00474974  0.51336553 -0.00942840
   0.50443045  0.73921261  0.26516402
   0.24907751  0.00316338  0.74080232
   0.48521446 -0.01687584  0.50285221
   0.74734902 -0.01761422  0.74977837
   0.00122491  0.76282755  0.25399682
   0.73814473  0.51622398  0.25346642
   0.01281578 -0.00339776  0.48989769
   0.50966012  0.51618856  0.50039005
   0.74296620  0.51792349  0.74949226
   0.75083927  0.72844801  0.49407955
HECN                                    
           1
     8.763265   -0.004221    0.006872
    -0.004292    8.871508   -0.001239
     0.006914   -0.001215    8.769455
   Ti   Ta   Hf   N    C    Mo   V 
   7   6   7  13  19   6   6
Direct configuration=    12
  -0.00122504 -0.01494429  0.00859799
   0.24905983 -0.00849480  0.25591821
   0.25118182  0.50930791  0.25034736