  64  64   0   0
  0.1129557E+02  0.8932500E-09  0.9055600E-09  0.8937200E-09  0.5000000E-15
  1.000000000000000E-004
  CAR 
 HECN                                    
     14.41776291    -49.94767557  301      8.96651698      1.00000000
    -49.948  0.0000E+00  0.0000E+00
    -49.733  0.0000E+00  0.0000E+00
    -49.519  0.0000E+00  0.0000E+00
    -49.304  0.0000E+00  0.0000E+00
    -49.089  0.0000E+00  0.0000E+00
    -48.875  0.0000E+00  0.0000E+00
    -48.660  0.0000E+00  0.0000E+00
    -48.446  0.0000E+00  0.0000E+00
    -48.231  0.0000E+00  0.0000E+00
    -48.017  0.0000E+00  0.0000E+00
    -47.802  0.0000E+00  0.0000E+00
    -47.588  0.5692E-16  0.1221E-16
    -47.373  0.3201E-07  0.6867E-08
    -47.159  0.2508E-02  0.5380E-03
    -46.944  0.1108E+00  0.2431E-01
    -46.729  0.3767E+00  0.1051E+00
    -46.515  0.1621E+00  0.1399E+00
    -46.300  0.3971E-03  0.1400E+00
    -46.086  0.4049E-09  0.1400E+00
    -45.871  0.0000E+00  0.1400E+00
    -45.657  0.0000E+00  0.1400E+00
    -45.442  0.0000E+00  0.1400E+00
    -45.228  0.0000E+00  0.1400E+00
    -45.013  0.0000E+00  0.1400E+00
    -44.798  0.0000E+00  0.1400E+00
    -44.584  0.0000E+00  0.1400E+00
    -44.369  0.0000E+00  0.1400E+00
    -44.155  0.0000E+00  0.1400E+00
    -43.940  0.0000E+00  0.1400E+00
    -43.726  0.0000E+00  0.1400E+00
    -43.511  0.0000E+00  0.1400E+00
    -43.297  0.0000E+00  0.1400E+00
    -43.082  0.0000E+00  0.1400E+00
    -42.867  0.0000E+00  0.1400E+00
    -42.653  0.0000E+00  0.1400E+00
    -42.438  0.0000E+00  0.1400E+00
    -42.224  0.0000E+00  0.1400E+00
    -42.009  0.0000E+00  0.1400E+00
    -41.795  0.0000E+00  0.1400E+00
    -41.580  0.0000E+00  0.1400E+00
    -41.366  0.0000E+00  0.1400E+00
    -41.151  0.0000E+00  0.1400E+00
    -40.937  0.0000E+00  0.1400E+00
    -40.722  0.0000E+00  0.1400E+00
    -40.507  0.0000E+00  0.1400E+00
    -40.293  0.0000E+00  0.1400E+00
    -40.078  0.0000E+00  0.1400E+00
    -39.864  0.0000E+00  0.1400E+00
    -39.649  0.0000E+00  0.1400E+00
    -39.435  0.0000E+00  0.1400E+00
    -39.220  0.0000E+00  0.1400E+00
    -39.006  0.0000E+00  0.1400E+00
    -38.791  0.0000E+00  0.1400E+00
    -38.576  0.0000E+00  0.1400E+00
    -38.362  0.0000E+00  0.1400E+00
    -38.147  0.0000E+00  0.1400E+00
    -37.933  0.0000E+00  0.1400E+00
    -37.718  0.0000E+00  0.1400E+00
    -37.504  0.0000E+00  0.1400E+00
    -37.289  0.0000E+00  0.1400E+00
    -37.075  0.0000E+00  0.1400E+00
    -36.860  0.0000E+00  0.1400E+00
    -36.645  0.0000E+00  0.1400E+00
    -36.431  0.0000E+00  0.1400E+00
    -36.216  0.0000E+00  0.1400E+00
    -36.002  0.0000E+00  0.1400E+00
    -35.787  0.0000E+00  0.1400E+00
    -35.573  0.0000E+00  0.1400E+00
    -35.358  0.4582E-15  0.1400E+00
    -35.144  0.1171E-06  0.1400E+00
    -34.929  0.4450E-02  0.1410E+00
    -34.715  0.1809E+00  0.1798E+00
    -34.500  0.1019E+01  0.3985E+00
    -34.285  0.4620E+00  0.4976E+00
    -34.071  0.1101E-01  0.5000E+00
    -33.856  0.6539E-06  0.5000E+00
    -33.642  0.7377E-14  0.5000E+00
    -33.427  0.0000E+00  0.5000E+00
    -33.213  0.0000E+00  0.5000E+00
    -32.998  0.0000E+00  0.5000E+00
    -32.784  0.0000E+00  0.5000E+00
    -32.569  0.0000E+00  0.5000E+00
    -32.354  0.0000E+00  0.5000E+00
    -32.140  0.0000E+00  0.5000E+00
    -31.925  0.0000E+00  0.5000E+00
    -31.711  0.0000E+00  0.5000E+00
    -31.496  0.0000E+00  0.5000E+00
    -31.282  0.0000E+00  0.5000E+00
    -31.067  0.0000E+00  0.5000E+00
    -30.853  0.0000E+00  0.5000E+00
    -30.638  0.0000E+00  0.5000E+00
    -30.423  0.0000E+00  0.5000E+00
    -30.209  0.0000E+00  0.5000E+00
    -29.994  0.0000E+00  0.5000E+00
    -29.780  0.0000E+00  0.5000E+00
    -29.565  0.0000E+00  0.5000E+00
    -29.351  0.0000E+00  0.5000E+00
    -29.136  0.0000E+00  0.5000E+00
    -28.922  0.0000E+00  0.5000E+00
    -28.707  0.0000E+00  0.5000E+00
    -28.493  0.0000E+00  0.5000E+00
    -28.278  0.0000E+00  0.5000E+00
    -28.063  0.0000E+00  0.5000E+00
    -27.849  0.0000E+00  0.5000E+00
    -27.634  0.0000E+00  0.5000E+00
    -27.420  0.0000E+00  0.5000E+00
    -27.205  0.1745E-08  0.5000E+00
    -26.991  0.6640E-03  0.5001E+00
    -26.776  0.1246E+00  0.5269E+00
    -26.562  0.3791E+00  0.6082E+00
    -26.347  0.3366E+00  0.6804E+00
    -26.132  0.5508E+00  0.7986E+00
    -25.918  0.2804E+00  0.8588E+00
    -25.703  0.5819E-02  0.8600E+00
    -25.489  0.1048E-06  0.8600E+00
    -25.274  0.3404E-15  0.8600E+00
    -25.060  0.0000E+00  0.8600E+00
    -24.845  0.0000E+00  0.8600E+00
    -24.631  0.0000E+00  0.8600E+00
    -24.416  0.0000E+00  0.8600E+00
    -24.202  0.0000E+00  0.8600E+00
    -23.987  0.0000E+00  0.8600E+00
    -23.772  0.1109E-13  0.8600E+00
    -23.558  0.8673E-06  0.8600E+00
    -23.343  0.1360E-01  0.8629E+00
    -23.129  0.3578E+00  0.9397E+00
    -22.914  0.1007E+01  0.1156E+01
    -22.700  0.5195E+00  0.1267E+01
    -22.485  0.5984E-01  0.1280E+01
    -22.271  0.7456E-01  0.1296E+01
    -22.056  0.2994E+00  0.1360E+01
    -21.841  0.4292E+00  0.1452E+01
    -21.627  0.3441E+00  0.1526E+01
    -21.412  0.5064E+00  0.1635E+01
    -21.198  0.1378E+00  0.1664E+01
    -20.983  0.1644E+00  0.1700E+01
    -20.769  0.1216E-02  0.1700E+01
    -20.554  0.3704E-08  0.1700E+01
    -20.340  0.0000E+00  0.1700E+01
    -20.125  0.0000E+00  0.1700E+01
    -19.910  0.0000E+00  0.1700E+01
    -19.696  0.0000E+00  0.1700E+01
    -19.481  0.0000E+00  0.1700E+01
    -19.267  0.0000E+00  0.1700E+01
    -19.052  0.0000E+00  0.1700E+01
    -18.838  0.0000E+00  0.1700E+01
    -18.623  0.0000E+00  0.1700E+01
    -18.409  0.0000E+00  0.1700E+01
    -18.194  0.0000E+00  0.1700E+01
    -17.980  0.0000E+00  0.1700E+01
    -17.765  0.0000E+00  0.1700E+01
    -17.550  0.0000E+00  0.1700E+01
    -17.336  0.0000E+00  0.1700E+01
    -17.121  0.0000E+00  0.1700E+01
    -16.907  0.0000E+00  0.1700E+01
    -16.692  0.0000E+00  0.1700E+01
    -16.478  0.0000E+00  0.1700E+01
    -16.263  0.0000E+00  0.1700E+01
    -16.049  0.0000E+00  0.1700E+01
    -15.834  0.0000E+00  0.1700E+01
    -15.619  0.0000E+00  0.1700E+01
    -15.405  0.0000E+00  0.1700E+01
    -15.190  0.0000E+00  0.1700E+01
    -14.976  0.0000E+00  0.1700E+01
    -14.761  0.0000E+00  0.1700E+01
    -14.547  0.0000E+00  0.1700E+01
    -14.332  0.0000E+00  0.1700E+01
    -14.118  0.0000E+00  0.1700E+01
    -13.903  0.0000E+00  0.1700E+01
    -13.688  0.0000E+00  0.1700E+01
    -13.474  0.0000E+00  0.1700E+01
    -13.259  0.0000E+00  0.1700E+01
    -13.045  0.0000E+00  0.1700E+01
    -12.830  0.0000E+00  0.1700E+01
    -12.616  0.0000E+00  0.1700E+01
    -12.401  0.0000E+00  0.1700E+01
    -12.187  0.0000E+00  0.1700E+01
    -11.972  0.0000E+00  0.1700E+01
    -11.758  0.0000E+00  0.1700E+01
    -11.543  0.0000E+00  0.1700E+01
    -11.328  0.0000E+00  0.1700E+01
    -11.114  0.0000E+00  0.1700E+01
    -10.899  0.0000E+00  0.1700E+01
    -10.685  0.0000E+00  0.1700E+01
    -10.470  0.0000E+00  0.1700E+01
    -10.256  0.0000E+00  0.1700E+01
    -10.041  0.0000E+00  0.1700E+01
     -9.827  0.0000E+00  0.1700E+01
     -9.612  0.0000E+00  0.1700E+01
     -9.397  0.0000E+00  0.1700E+01
     -9.183  0.0000E+00  0.1700E+01
     -8.968  0.0000E+00  0.1700E+01
     -8.754  0.0000E+00  0.1700E+01
     -8.539  0.0000E+00  0.1700E+01
     -8.325  0.0000E+00  0.1700E+01
     -8.110  0.0000E+00  0.1700E+01
     -7.896  0.2193E-12  0.1700E+01
     -7.681  0.1405E-05  0.1700E+01
     -7.466  0.2979E-02  0.1701E+01
     -7.252  0.4802E-01  0.1711E+01
     -7.037  0.5332E-01  0.1722E+01
     -6.823  0.1023E+00  0.1744E+01
     -6.608  0.1683E+00  0.1780E+01
     -6.394  0.1542E+00  0.1814E+01
     -6.179  0.1515E+00  0.1846E+01
     -5.965  0.1492E+00  0.1878E+01
     -5.750  0.1513E+00  0.1910E+01
     -5.536  0.1626E+00  0.1945E+01
     -5.321  0.6765E-01  0.1960E+01
     -5.106  0.5458E-03  0.1960E+01
     -4.892  0.1323E-08  0.1960E+01
     -4.677  0.0000E+00  0.1960E+01
     -4.463  0.5032E-12  0.1960E+01
     -4.248  0.2626E-05  0.1960E+01
     -4.034  0.4119E-02  0.1961E+01
     -3.819  0.5383E-01  0.1972E+01
     -3.605  0.3797E-01  0.1981E+01
     -3.390  0.7079E-01  0.1996E+01
     -3.175  0.1223E+00  0.2022E+01
     -2.961  0.1743E+00  0.2059E+01
     -2.746  0.2560E+00  0.2114E+01
     -2.532  0.2363E+00  0.2165E+01
     -2.317  0.2297E+00  0.2214E+01
     -2.103  0.2569E+00  0.2269E+01
     -1.888  0.1533E+00  0.2302E+01
     -1.674  0.9366E-01  0.2322E+01
     -1.459  0.6907E-01  0.2337E+01
     -1.244  0.1243E-01  0.2340E+01
     -1.030  0.3682E-03  0.2340E+01
     -0.815  0.2647E-07  0.2340E+01
     -0.601  0.3212E-15  0.2340E+01
     -0.386  0.0000E+00  0.2340E+01
     -0.172  0.0000E+00  0.2340E+01
      0.043  0.0000E+00  0.2340E+01
      0.257  0.1980E-14  0.2340E+01
      0.472  0.8248E-07  0.2340E+01
      0.686  0.6777E-03  0.2340E+01
      0.901  0.7906E-02  0.2342E+01
      1.116  0.2864E-01  0.2348E+01
      1.330  0.8773E-01  0.2367E+01
      1.545  0.8600E-01  0.2385E+01
      1.759  0.1653E+00  0.2421E+01
      1.974  0.1797E+00  0.2459E+01
      2.188  0.2635E+00  0.2516E+01
      2.403  0.3100E+00  0.2582E+01
      2.617  0.2606E+00  0.2638E+01
      2.832  0.3009E+00  0.2703E+01
      3.047  0.3281E+00  0.2773E+01
      3.261  0.3129E+00  0.2840E+01
      3.476  0.4131E+00  0.2929E+01
      3.690  0.5304E+00  0.3043E+01
      3.905  0.6046E+00  0.3172E+01
      4.119  0.6705E+00  0.3316E+01
      4.334  0.6985E+00  0.3466E+01
      4.548  0.6667E+00  0.3609E+01
      4.763  0.5869E+00  0.3735E+01
      4.977  0.5026E+00  0.3843E+01
      5.192  0.4173E+00  0.3932E+01
      5.407  0.3175E+00  0.4001E+01
      5.621  0.3170E+00  0.4069E+01
      5.836  0.3046E+00  0.4134E+01
      6.050  0.2289E+00  0.4183E+01
      6.265  0.1717E+00  0.4220E+01
      6.479  0.1337E+00  0.4249E+01
      6.694  0.7447E-01  0.4265E+01
      6.908  0.1254E+00  0.4291E+01
      7.123  0.1931E+00  0.4333E+01
      7.338  0.1820E+00  0.4372E+01
      7.552  0.1809E+00  0.4411E+01
      7.767  0.1903E+00  0.4452E+01
      7.981  0.2112E+00  0.4497E+01
      8.196  0.2355E+00  0.4547E+01
      8.410  0.2680E+00  0.4605E+01
      8.625  0.3046E+00  0.4670E+01
      8.839  0.2619E+00  0.4726E+01
      9.054  0.2563E+00  0.4781E+01
      9.269  0.2768E+00  0.4841E+01
      9.483  0.3618E+00  0.4918E+01
      9.698  0.4245E+00  0.5010E+01
      9.912  0.4490E+00  0.5106E+01
     10.127  0.4655E+00  0.5206E+01
     10.341  0.4323E+00  0.5298E+01
     10.556  0.4222E+00  0.5389E+01
     10.770  0.4205E+00  0.5479E+01
     10.985  0.4396E+00  0.5574E+01
     11.199  0.4237E+00  0.5665E+01
     11.414  0.3612E+00  0.5742E+01
     11.629  0.8337E-01  0.5760E+01
     11.843  0.4842E-03  0.5760E+01
     12.058  0.3422E-08  0.5760E+01
     12.272  0.4600E-17  0.5760E+01
     12.487  0.0000E+00  0.5760E+01
     12.701  0.0000E+00  0.5760E+01
     12.916  0.0000E+00  0.5760E+01
     13.130  0.0000E+00  0.5760E+01
     13.345  0.0000E+00  0.5760E+01
     13.560  0.0000E+00  0.5760E+01
     13.774  0.0000E+00  0.5760E+01
     13.989  0.0000E+00  0.5760E+01
     14.203  0.0000E+00  0.5760E+01
     14.418  0.0000E+00  0.5760E+01
