 running on   24 total cores
 distrk:  each k-point on   24 cores,    1 groups
 distr:  one band on    1 cores,   24 groups
 using from now: INCAR     
 vasp.5.4.4.18Apr17-6-g9f103f2a35 (build Oct 18 2021 20:38:43) complex          
  
 POSCAR found type information on POSCAR  Nb Ta Hf N  C  Cr Mo
 POSCAR found :  7 types and      64 ions
 scaLAPACK will be used

 ----------------------------------------------------------------------------- 
|                                                                             |
|           W    W    AA    RRRRR   N    N  II  N    N   GGGG   !!!           |
|           W    W   A  A   R    R  NN   N  II  NN   N  G    G  !!!           |
|           W    W  A    A  R    R  N N  N  II  N N  N  G       !!!           |
|           W WW W  AAAAAA  RRRRR   N  N N  II  N  N N  G  GGG   !            |
|           WW  WW  A    A  R   R   N   NN  II  N   NN  G    G                |
|           W    W  A    A  R    R  N    N  II  N    N   GGGG   !!!           |
|                                                                             |
|      For optimal performance we recommend to set                            |
|        NCORE= 4 - approx SQRT( number of cores)                             |
|      NCORE specifies how many cores store one orbital (NPAR=cpu/NCORE).     |
|      This setting can  greatly improve the performance of VASP for DFT.     |
|      The default,   NCORE=1            might be grossly inefficient         |
|      on modern multi-core architectures or massively parallel machines.     |
|      Do your own testing !!!!                                               |
|      Unfortunately you need to use the default for GW and RPA calculations. |
|      (for HF NCORE is supported but not extensively tested yet)             |
|                                                                             |
 ----------------------------------------------------------------------------- 


 ----------------------------------------------------------------------------- 
|                                                                             |
|  ADVICE TO THIS USER RUNNING 'VASP/VAMP'   (HEAR YOUR MASTER'S VOICE ...):  |
|                                                                             |
|      You have a (more or less) 'large supercell' and for larger cells       |
|      it might be more efficient to use real space projection operators      |
|      So try LREAL= Auto  in the INCAR   file.                               |
|      Mind: If you want to do a very accurate calculations keep the          |
|      reciprocal projection scheme          (i.e. LREAL=.FALSE.)             |
|                                                                             |
 ----------------------------------------------------------------------------- 

 LDA part: xc-table for Pade appr. of Perdew
 POSCAR, INCAR and KPOINTS ok, starting setup
 FFT: planning ...
 WAVECAR not read
 entering main loop
       N       E                     dE             d eps       ncg     rms          rms(c)
DAV:   1     0.573126331721E+04    0.57313E+04   -0.19735E+05  8112   0.149E+03
DAV:   2     0.172106085430E+03   -0.55592E+04   -0.53526E+04  8808   0.629E+02
DAV:   3    -0.690758565163E+03   -0.86286E+03   -0.81189E+03 13344   0.218E+02
DAV:   4    -0.776594087882E+03   -0.85836E+02   -0.82469E+02 13464   0.802E+01
DAV:   5    -0.789622074002E+03   -0.13028E+02   -0.12698E+02 16104   0.267E+01    0.737E+01
RMM:   6    -0.967229851069E+03   -0.17761E+03   -0.25762E+03 11273   0.152E+02    0.124E+02
RMM:   7    -0.655998669006E+03    0.31123E+03   -0.30288E+02 12121   0.429E+01    0.372E+01
RMM:   8    -0.665542824768E+03   -0.95442E+01   -0.74289E+01 13351   0.170E+01    0.376E+01
RMM:   9    -0.657853445297E+03    0.76894E+01   -0.17650E+01 12453   0.108E+01    0.289E+01
RMM:  10    -0.654304544465E+03    0.35489E+01   -0.10124E+01 12925   0.713E+00    0.145E+01
RMM:  11    -0.656349584729E+03   -0.20450E+01   -0.46856E+00 10888   0.640E+00    0.271E+01
RMM:  12    -0.653199545033E+03    0.31500E+01   -0.57892E+00 11798   0.607E+00    0.117E+01
RMM:  13    -0.653669936015E+03   -0.47039E+00   -0.32865E+00 12253   0.411E+00    0.156E+01
RMM:  14    -0.653282010634E+03    0.38793E+00   -0.26731E+00 12391   0.332E+00    0.938E+00
RMM:  15    -0.652892065633E+03    0.38995E+00   -0.10148E+00 11801   0.241E+00    0.106E+01
RMM:  16    -0.652475334716E+03    0.41673E+00   -0.61372E-01 12269   0.198E+00    0.269E+00
RMM:  17    -0.652462858885E+03    0.12476E-01   -0.10825E+00 13445   0.139E+00    0.149E+00
RMM:  18    -0.652533789548E+03   -0.70931E-01   -0.24805E-01 10340   0.190E+00    0.424E+00
RMM:  19    -0.652504937612E+03    0.28852E-01   -0.34263E-01 12788   0.780E-01    0.137E+00
RMM:  20    -0.652479591361E+03    0.25346E-01   -0.83950E-02 11943   0.580E-01    0.576E-01
RMM:  21    -0.652478477092E+03    0.11143E-02   -0.58190E-02 12315   0.479E-01    0.440E-01
RMM:  22    -0.652481171568E+03   -0.26945E-02   -0.43574E-02 11652   0.355E-01    0.220E-01
RMM:  23    -0.652482161734E+03   -0.99017E-03   -0.15134E-02 11692   0.203E-01    0.779E-02
RMM:  24    -0.652483572500E+03   -0.14108E-02   -0.15681E-02  9988   0.144E-01    0.493E-02
RMM:  25    -0.652483859796E+03   -0.28730E-03   -0.35188E-03 10871   0.886E-02    0.313E-02
RMM:  26    -0.652484144104E+03   -0.28431E-03   -0.30557E-03  8865   0.652E-02    0.205E-02
RMM:  27    -0.652484238140E+03   -0.94037E-04   -0.10401E-03  8356   0.453E-02    0.125E-02
RMM:  28    -0.652484325450E+03   -0.87309E-04   -0.88690E-04  7603   0.381E-02    0.578E-03
RMM:  29    -0.652484365885E+03   -0.40435E-04   -0.41143E-04  7217   0.293E-02    0.122E-02
RMM:  30    -0.652484391132E+03   -0.25247E-04   -0.25954E-04  7031   0.268E-02    0.363E-03
WARNING in EDDRMM: call to ZHEGV failed, returncode =   8  4      7
RMM:  31    -0.652484410458E+03   -0.19326E-04   -0.18934E-04  6796   0.189E-02    0.322E-03
RMM:  32    -0.652484418104E+03   -0.76458E-05   -0.73568E-05  6460   0.187E-02
   1 F= -.65248442E+03 E0= -.65237470E+03  d E =-.652484E+03
 curvature:   0.00 expect dE= 0.000E+00 dE for cont linesearch  0.000E+00
 trial: gam= 0.00000 g(F)=  0.325E+01 g(S)=  0.569E+01 ort = 0.000E+00 (trialstep = 0.100E+01)
 search vector abs. value=  0.894E+01
 bond charge predicted
       N       E                     dE             d eps       ncg     rms          rms(c)
DAV:   1    -0.689197767428E+03   -0.36713E+02   -0.16613E+03 11424   0.211E+02    0.536E+01
RMM:   2    -0.880092246818E+03   -0.19089E+03   -0.10691E+03  9529   0.131E+02    0.104E+02
RMM:   3    -0.656819616291E+03    0.22327E+03   -0.95531E+01 10439   0.392E+01    0.209E+01
RMM:   4    -0.665097437772E+03   -0.82778E+01   -0.23334E+01 11206   0.168E+01    0.395E+01
RMM:   5    -0.653678024306E+03    0.11419E+02   -0.16203E+01 10303   0.145E+01    0.146E+01
RMM:   6    -0.655920307682E+03   -0.22423E+01   -0.90390E+00 10898   0.834E+00    0.253E+01
RMM:   7    -0.652753703025E+03    0.31666E+01   -0.33978E+00 10744   0.642E+00    0.102E+01
RMM:   8    -0.652342256670E+03    0.41145E+00   -0.14439E+00 11318   0.297E+00    0.638E+00
RMM:   9    -0.652333827175E+03    0.84295E-02   -0.54233E-01 11545   0.212E+00    0.644E+00
RMM:  10    -0.652204004104E+03    0.12982E+00   -0.51487E-01 13809   0.146E+00    0.254E+00
RMM:  11    -0.652284343809E+03   -0.80340E-01   -0.19573E-01 12467   0.120E+00    0.464E+00
RMM:  12    -0.652212736170E+03    0.71608E-01   -0.11554E-01 12572   0.102E+00    0.140E+00
RMM:  13    -0.652228821808E+03   -0.16086E-01   -0.11024E-01 14192   0.683E-01    0.135E+00
RMM:  14    -0.652230427818E+03   -0.16060E-02   -0.47592E-02 13314   0.677E-01    0.104E+00
RMM:  15    -0.652232870204E+03   -0.24424E-02   -0.47423E-02 14134   0.456E-01    0.348E-01
RMM:  16    -0.652235055413E+03   -0.21852E-02   -0.26022E-02 14125   0.383E-01    0.175E-01
RMM:  17    -0.652236042543E+03   -0.98713E-03   -0.13936E-02 13550   0.315E-01    0.108E-01
RMM:  18    -0.652237081245E+03   -0.10387E-02   -0.11845E-02 13663   0.234E-01    0.109E-01
RMM:  19    -0.652237592027E+03   -0.51078E-03   -0.60359E-03 12411   0.200E-01    0.515E-02
RMM:  20    -0.652237986984E+03   -0.39496E-03   -0.42639E-03 12827   0.130E-01    0.312E-02
RMM:  21    -0.652238185300E+03   -0.19832E-03   -0.21927E-03 12286   0.101E-01    0.253E-02
RMM:  22    -0.652238302584E+03   -0.11728E-03   -0.12476E-03 11741   0.767E-02    0.154E-02
RMM:  23    -0.652238364745E+03   -0.62161E-04   -0.65713E-04 10773   0.684E-02    0.563E-03
WARNING in EDDRMM: call to ZHEGV failed, returncode =   8  4      6
RMM:  24    -0.652238418259E+03   -0.53515E-04   -0.55196E-04 11065   0.486E-02    0.157E-02
RMM:  25    -0.652238446319E+03   -0.28060E-04   -0.27825E-04 10644   0.380E-02    0.346E-03
RMM:  26    -0.652238461994E+03   -0.15675E-04   -0.16399E-04  9575   0.311E-02    0.626E-03
RMM:  27    -0.652238473211E+03   -0.11217E-04   -0.95373E-05  8828   0.258E-02    0.327E-03
RMM:  28    -0.652238477569E+03   -0.43587E-05   -0.69496E-05  8057   0.221E-02
   2 F= -.65223848E+03 E0= -.65215517E+03  d E =0.245941E+00
 trial-energy change:    0.245941  1 .order    0.748776   -8.944644   10.442196
 step:   0.5003(harm=  0.4614)  dis= 0.04690  next Energy=  -654.784804 (dE=-0.230E+01)
 bond charge predicted
       N       E                     dE             d eps       ncg     rms          rms(c)
DAV:   1    -0.667296956395E+03   -0.15058E+02   -0.43956E+02 11424   0.102E+02    0.426E+01
RMM:   2    -0.829795253590E+03   -0.16250E+03   -0.14466E+02 11785   0.325E+01    0.727E+01
RMM:   3    -0.671390403141E+03    0.15840E+03   -0.46604E+01 10332   0.285E+01    0.392E+01
RMM:   4    -0.657834416372E+03    0.13556E+02   -0.24883E+01 10501   0.180E+01    0.211E+01
RMM:   5    -0.661127175078E+03   -0.32928E+01   -0.15487E+01 10265   0.123E+01    0.290E+01
RMM:   6    -0.659133922869E+03    0.19933E+01   -0.55246E+00 10674   0.656E+00    0.258E+01
RMM:   7    -0.655252673007E+03    0.38812E+01   -0.15366E+00 10253   0.466E+00    0.802E+00
RMM:   8    -0.655441498981E+03   -0.18883E+00   -0.13983E+00 11429   0.318E+00    0.114E+01
RMM:   9    -0.655300935428E+03    0.14056E+00   -0.66102E-01 12136   0.189E+00    0.888E+00
RMM:  10    -0.654857684846E+03    0.44325E+00   -0.21814E-01 11265   0.177E+00    0.409E+00
RMM:  11    -0.654824985698E+03    0.32699E-01   -0.15600E-01 12785   0.969E-01    0.339E+00
RMM:  12    -0.654788427342E+03    0.36558E-01   -0.88870E-02 12011   0.896E-01    0.157E+00
RMM:  13    -0.654786671254E+03    0.17561E-02   -0.63962E-02 13499   0.580E-01    0.120E+00
RMM:  14    -0.654784946315E+03    0.17249E-02   -0.34378E-02 13538   0.422E-01    0.608E-01
RMM:  15    -0.654786441907E+03   -0.14956E-02   -0.18968E-02 13627   0.317E-01    0.360E-01
RMM:  16    -0.654789779504E+03   -0.33376E-02   -0.13624E-02 13768   0.262E-01    0.496E-01
RMM:  17    -0.654790576365E+03   -0.79686E-03   -0.10844E-02 13257   0.243E-01    0.414E-01
RMM:  18    -0.654790490468E+03    0.85897E-04   -0.82438E-03 12839   0.245E-01    0.297E-01
RMM:  19    -0.654790576919E+03   -0.86451E-04   -0.54458E-03 12835   0.147E-01    0.102E-01
RMM:  20    -0.654790731811E+03   -0.15489E-03   -0.25136E-03 12197   0.125E-01    0.451E-02
RMM:  21    -0.654790945584E+03   -0.21377E-03   -0.23618E-03 11617   0.843E-02    0.444E-02
RMM:  22    -0.654791015229E+03   -0.69645E-04   -0.10215E-03 10562   0.822E-02    0.168E-02
RMM:  23    -0.654791108871E+03   -0.93643E-04   -0.91329E-04 10596   0.544E-02    0.340E-02
RMM:  24    -0.654791135195E+03   -0.26324E-04   -0.39583E-04  9905   0.469E-02    0.114E-02
RMM:  25    -0.654791160454E+03   -0.25259E-04   -0.27179E-04  9556   0.341E-02    0.166E-02
RMM:  26    -0.654791168911E+03   -0.84566E-05   -0.14040E-04  9417   0.272E-02    0.306E-03
WARNING in EDDRMM: call to ZHEGV failed, returncode =   8  4      8
RMM:  27    -0.654791177970E+03   -0.90592E-05   -0.89587E-05  8661   0.232E-02
   3 F= -.65479118E+03 E0= -.65469469E+03  d E =-.230676E+01
 curvature:  -0.23 expect dE=-0.764E+00 dE for cont linesearch -0.170E-02
 trial: gam= 0.34337 g(F)=  0.231E+01 g(S)=  0.102E+01 ort = 0.258E+00 (trialstep = 0.900E+00)
 search vector abs. value=  0.456E+01
 bond charge predicted
       N       E                     dE             d eps       ncg     rms          rms(c)
DAV:   1    -0.649773404613E+03    0.50178E+01   -0.60123E+02  8472   0.105E+02    0.104E+01
RMM:   2    -0.674059713862E+03   -0.24286E+02   -0.82936E+01 12249   0.272E+01    0.380E+01
RMM:   3    -0.657573953773E+03    0.16486E+02   -0.10784E+01 10100   0.142E+01    0.145E+01
RMM:   4    -0.656599462310E+03    0.97449E+00   -0.39205E+00 11681   0.512E+00    0.481E+00
RMM:   5    -0.656588820564E+03    0.10642E-01   -0.11088E+00 12388   0.254E+00    0.698E+00
RMM:   6    -0.656421769034E+03    0.16705E+00   -0.38526E-01 12654   0.150E+00    0.292E+00
RMM:   7    -0.656450257787E+03   -0.28489E-01   -0.40586E-01 11787   0.142E+00    0.467E+00
RMM:   8    -0.656379461078E+03    0.70797E-01   -0.16128E-01 11492   0.121E+00    0.258E+00
RMM:   9    -0.656354281066E+03    0.25180E-01   -0.14390E-01 12633   0.674E-01    0.153E+00
RMM:  10    -0.656357857603E+03   -0.35765E-02   -0.48372E-02 11079   0.586E-01    0.177E+00
RMM:  11    -0.656344698449E+03    0.13159E-01   -0.31753E-02 12237   0.411E-01    0.573E-01
RMM:  12    -0.656347633394E+03   -0.29349E-02   -0.18526E-02 12900   0.274E-01    0.915E-01
RMM:  13    -0.656344765790E+03    0.28676E-02   -0.10104E-02 13140   0.208E-01    0.242E-01
RMM:  14    -0.656344935681E+03   -0.16989E-03   -0.55638E-03 13146   0.106E-01    0.969E-02
RMM:  15    -0.656345012034E+03   -0.76353E-04   -0.17903E-03 12337   0.103E-01    0.681E-02
RMM:  16    -0.656345235941E+03   -0.22391E-03   -0.25387E-03 12584   0.690E-02    0.414E-02
RMM:  17    -0.656345274323E+03   -0.38382E-04   -0.60615E-04 10581   0.615E-02    0.382E-02
RMM:  18    -0.656345329784E+03   -0.55461E-04   -0.69617E-04 10628   0.378E-02    0.155E-02
RMM:  19    -0.656345345433E+03   -0.15649E-04   -0.20871E-04  8703   0.356E-02    0.997E-03
RMM:  20    -0.656345360577E+03   -0.15144E-04   -0.18412E-04  8100   0.246E-02    0.668E-03
RMM:  21    -0.656345366529E+03   -0.59520E-05   -0.74811E-05  6938   0.225E-02
   4 F= -.65634537E+03 E0= -.65626117E+03  d E =-.155419E+01
 trial-energy change:   -1.554189  1 .order   -1.582100   -3.075795   -0.088404
 step:   0.9283(harm=  0.9267)  dis= 0.09322  next Energy=  -656.346754 (dE=-0.156E+01)
 bond charge predicted
       N       E                     dE             d eps       ncg     rms          rms(c)
DAV:   1    -0.656340079699E+03    0.52809E-02   -0.59054E-01  9216   0.335E+00    0.322E-01
RMM:   2    -0.656372327579E+03   -0.32248E-01   -0.96176E-02 12004   0.945E-01    0.216E+00
RMM:   3    -0.656349185914E+03    0.23142E-01   -0.13157E-02  9887   0.488E-01    0.707E-01
RMM:   4    -0.656347189516E+03    0.19964E-02   -0.48108E-03 10668   0.210E-01    0.240E-01
RMM:   5    -0.656347464558E+03   -0.27504E-03   -0.17449E-03 11105   0.905E-02    0.377E-01
RMM:   6    -0.656346859274E+03    0.60528E-03   -0.45476E-04  9212   0.700E-02    0.764E-02
RMM:   7    -0.656346944193E+03   -0.84919E-04   -0.46641E-04  9930   0.466E-02    0.163E-01
RMM:   8    -0.656346837207E+03    0.10699E-03   -0.23670E-04  8922   0.456E-02    0.744E-02
RMM:   9    -0.656346827190E+03    0.10018E-04   -0.19986E-04  8821   0.361E-02    0.798E-02
RMM:  10    -0.656346803355E+03    0.23835E-04   -0.73360E-05  5871   0.256E-02    0.292E-02
RMM:  11    -0.656346805122E+03   -0.17670E-05   -0.44037E-05  5681   0.210E-02
   5 F= -.65634681E+03 E0= -.65626292E+03  d E =-.155563E+01
 curvature:  -0.62 expect dE=-0.505E+00 dE for cont linesearch -0.651E-09
 trial: gam= 0.16803 g(F)=  0.745E+00 g(S)=  0.741E-01 ort =-0.694E-04 (trialstep = 0.906E+00)
 search vector abs. value=  0.948E+00
 bond charge predicted
       N       E                     dE             d eps       ncg     rms          rms(c)
DAV:   1    -0.654406453449E+03    0.19403E+01   -0.16269E+02 11160   0.752E+01    0.825E+00
RMM:   2    -0.667345658655E+03   -0.12939E+02   -0.35373E+01 11051   0.181E+01    0.336E+01
RMM:   3    -0.656848441820E+03    0.10497E+02   -0.57418E+00 10102   0.976E+00    0.267E+00
RMM:   4    -0.657277332345E+03   -0.42889E+00   -0.18373E+00 12101   0.313E+00    0.951E+00
RMM:   5    -0.656845249345E+03    0.43208E+00   -0.31901E-01 10539   0.201E+00    0.163E+00
RMM:   6    -0.656885557785E+03   -0.40308E-01   -0.23807E-01 12014   0.971E-01    0.355E+00
RMM:   7    -0.656833891873E+03    0.51666E-01   -0.81232E-02 11031   0.845E-01    0.149E+00
RMM:   8    -0.656832535487E+03    0.13564E-02   -0.85056E-02 12432   0.612E-01    0.178E+00
RMM:   9    -0.656822259022E+03    0.10276E-01   -0.23604E-02 11276   0.486E-01    0.882E-01
RMM:  10    -0.656825471224E+03   -0.32122E-02   -0.24696E-02 13146   0.307E-01    0.117E+00
RMM:  11    -0.656820390949E+03    0.50803E-02   -0.85336E-03 12206   0.252E-01    0.264E-01
RMM:  12    -0.656821171290E+03   -0.78034E-03   -0.81105E-03 13463   0.140E-01    0.348E-01
RMM:  13    -0.656820882946E+03    0.28834E-03   -0.24722E-03 11869   0.144E-01    0.177E-01
RMM:  14    -0.656821015065E+03   -0.13212E-03   -0.26756E-03 12410   0.743E-02    0.884E-02
RMM:  15    -0.656821073238E+03   -0.58172E-04   -0.82688E-04 12224   0.729E-02    0.562E-02
RMM:  16    -0.656821165460E+03   -0.92222E-04   -0.10145E-03 12095   0.513E-02    0.255E-02
RMM:  17    -0.656821180634E+03   -0.15174E-04   -0.34159E-04 10850   0.517E-02    0.164E-02
RMM:  18    -0.656821209604E+03   -0.28971E-04   -0.37118E-04 10630   0.347E-02    0.115E-02
RMM:  19    -0.656821222044E+03   -0.12439E-04   -0.15082E-04  8624   0.343E-02    0.890E-03
RMM:  20    -0.656821231375E+03   -0.93317E-05   -0.11923E-04  8239   0.225E-02    0.613E-03
RMM:  21    -0.656821235791E+03   -0.44158E-05   -0.70748E-05  7298   0.216E-02
   6 F= -.65682124E+03 E0= -.65674285E+03  d E =-.474431E+00
 trial-energy change:   -0.474431  1 .order   -0.471992   -0.741931   -0.202054
 step:   1.2326(harm=  1.2447)  dis= 0.05652  next Energy=  -656.857816 (dE=-0.511E+00)
 bond charge predicted
       N       E                     dE             d eps       ncg     rms          rms(c)
DAV:   1    -0.656531773190E+03    0.28946E+00   -0.20961E+01 11112   0.276E+01    0.293E+00
RMM:   2    -0.658291283828E+03   -0.17595E+01   -0.49334E+00 10574   0.704E+00    0.144E+01
RMM:   3    -0.656944412395E+03    0.13469E+01   -0.84221E-01  9933   0.377E+00    0.426E+00
RMM:   4    -0.656886574188E+03    0.57838E-01   -0.27183E-01 11573   0.141E+00    0.199E+00
RMM:   5    -0.656890934954E+03   -0.43608E-02   -0.70329E-02 11217   0.698E-01    0.258E+00
RMM:   6    -0.656862369388E+03    0.28566E-01   -0.20353E-02 10478   0.471E-01    0.637E-01
RMM:   7    -0.656867956905E+03   -0.55875E-02   -0.23694E-02 11461   0.344E-01    0.133E+00
RMM:   8    -0.656860225873E+03    0.77310E-02   -0.86703E-03 10614   0.311E-01    0.470E-01
RMM:   9    -0.656859062722E+03    0.11632E-02   -0.74471E-03 13054   0.166E-01    0.214E-01
RMM:  10    -0.656859738292E+03   -0.67557E-03   -0.25361E-03 10758   0.149E-01    0.421E-01
RMM:  11    -0.656859005415E+03    0.73288E-03   -0.16321E-03 11849   0.898E-02    0.789E-02
RMM:  12    -0.656859183104E+03   -0.17769E-03   -0.10398E-03 11465   0.627E-02    0.164E-01
RMM:  13    -0.656859085637E+03    0.97467E-04   -0.44270E-04 10921   0.501E-02    0.474E-02
RMM:  14    -0.656859114255E+03   -0.28619E-04   -0.37300E-04 10883   0.318E-02    0.329E-02
RMM:  15    -0.656859119413E+03   -0.51575E-05   -0.14113E-04  8829   0.327E-02    0.174E-02
RMM:  16    -0.656859125612E+03   -0.61994E-05   -0.14553E-04  8583   0.235E-02    0.606E-03
RMM:  17    -0.656859129493E+03   -0.38811E-05   -0.53303E-05  6911   0.215E-02
   7 F= -.65685913E+03 E0= -.65678245E+03  d E =-.512324E+00
 curvature:  -0.72 expect dE=-0.467E+00 dE for cont linesearch -0.192E-04
 trial: gam= 0.76450 g(F)=  0.282E+00 g(S)=  0.368E+00 ort = 0.502E-02 (trialstep = 0.760E+00)
 search vector abs. value=  0.121E+01
 bond charge predicted
       N       E                     dE             d eps       ncg     rms          rms(c)
DAV:   1    -0.655026799247E+03    0.18323E+01   -0.15075E+02 12384   0.777E+01    0.904E+00
RMM:   2    -0.669878668439E+03   -0.14852E+02   -0.45484E+01  9759   0.244E+01    0.370E+01
RMM:   3    -0.657153153473E+03    0.12726E+02   -0.77659E+00  9718   0.125E+01    0.566E+00
RMM:   4    -0.657354027718E+03   -0.20087E+00   -0.22552E+00 12642   0.382E+00    0.672E+00
RMM:   5    -0.657118783004E+03    0.23524E+00   -0.38097E-01 10414   0.214E+00    0.303E+00
RMM:   6    -0.657117651199E+03    0.11318E-02   -0.20009E-01 11267   0.126E+00    0.331E+00
RMM:   7    -0.657112297411E+03    0.53538E-02   -0.16862E-01 11008   0.118E+00    0.340E+00
RMM:   8    -0.657071327356E+03    0.40970E-01   -0.86781E-02 10478   0.994E-01    0.191E+00
RMM:   9    -0.657050749241E+03    0.20578E-01   -0.56860E-02 12015   0.568E-01    0.648E-01
RMM:  10    -0.657053543910E+03   -0.27947E-02   -0.26279E-02 12678   0.344E-01    0.836E-01
RMM:  11    -0.657051356184E+03    0.21877E-02   -0.11277E-02 13479   0.218E-01    0.279E-01
RMM:  12    -0.657052379966E+03   -0.10238E-02   -0.56870E-03 13230   0.157E-01    0.422E-01
RMM:  13    -0.657052065425E+03    0.31454E-03   -0.31953E-03 12910   0.118E-01    0.158E-01
RMM:  14    -0.657052434551E+03   -0.36913E-03   -0.23354E-03 13000   0.816E-02    0.101E-01
RMM:  15    -0.657052629689E+03   -0.19514E-03   -0.11241E-03 11990   0.979E-02    0.394E-02
RMM:  16    -0.657052743044E+03   -0.11335E-03   -0.12696E-03 12346   0.573E-02    0.243E-02
RMM:  17    -0.657052775584E+03   -0.32541E-04   -0.42321E-04 10281   0.637E-02    0.217E-02
RMM:  18    -0.657052824160E+03   -0.48576E-04   -0.49605E-04  9896   0.359E-02    0.133E-02
RMM:  19    -0.657052837355E+03   -0.13195E-04   -0.14647E-04  8365   0.342E-02    0.727E-03
RMM:  20    -0.657052847480E+03   -0.10125E-04   -0.10181E-04  7908   0.249E-02    0.496E-03
RMM:  21    -0.657052855142E+03   -0.76618E-05   -0.71299E-05  7504   0.218E-02
   8 F= -.65705286E+03 E0= -.65698449E+03  d E =-.193726E+00
 trial-energy change:   -0.193726  1 .order   -0.181809   -0.496528    0.132909
 step:   0.6130(harm=  0.5995)  dis= 0.02895  next Energy=  -657.065623 (dE=-0.206E+00)
 bond charge predicted
       N       E                     dE             d eps       ncg     rms          rms(c)
DAV:   1    -0.656982927641E+03    0.69920E-01   -0.56276E+00 12000   0.151E+01    0.181E+00
RMM:   2    -0.657632574440E+03   -0.64965E+00   -0.15016E+00 10469   0.413E+00    0.920E+00
RMM:   3    -0.657114534542E+03    0.51804E+00   -0.30503E-01  9804   0.237E+00    0.305E+00
RMM:   4    -0.657072841764E+03    0.41693E-01   -0.89746E-02 11257   0.929E-01    0.932E-01
RMM:   5    -0.657077939080E+03   -0.50973E-02   -0.30697E-02 11216   0.454E-01    0.153E+00
RMM:   6    -0.657066777674E+03    0.11161E-01   -0.75013E-03 10164   0.312E-01    0.350E-01
RMM:   7    -0.657067727097E+03   -0.94942E-03   -0.79485E-03 11337   0.197E-01    0.588E-01
RMM:   8    -0.657066455341E+03    0.12718E-02   -0.26264E-03 10130   0.189E-01    0.350E-01
RMM:   9    -0.657065657851E+03    0.79749E-03   -0.19124E-03 12023   0.107E-01    0.901E-02
RMM:  10    -0.657065786848E+03   -0.12900E-03   -0.76615E-04 10995   0.673E-02    0.162E-01
RMM:  11    -0.657065670403E+03    0.11645E-03   -0.35243E-04  9849   0.476E-02    0.477E-02
RMM:  12    -0.657065692804E+03   -0.22402E-04   -0.19148E-04  8655   0.312E-02    0.669E-02
RMM:  13    -0.657065680094E+03    0.12710E-04   -0.10093E-04  7516   0.273E-02    0.263E-02
RMM:  14    -0.657065681405E+03   -0.13110E-05   -0.68563E-05  6785   0.207E-02
   9 F= -.65706568E+03 E0= -.65699575E+03  d E =-.206552E+00
 curvature:  -0.55 expect dE=-0.212E+00 dE for cont linesearch -0.213E-07
 trial: gam= 0.52190 g(F)=  0.292E+00 g(S)=  0.911E-01 ort =-0.216E-03 (trialstep = 0.731E+00)
 search vector abs. value=  0.713E+00
 bond charge predicted
       N       E                     dE             d eps       ncg     rms          rms(c)
DAV:   1    -0.655656942714E+03    0.14087E+01   -0.77491E+01  8784   0.509E+01    0.241E+00
RMM:   2    -0.657559898903E+03   -0.19030E+01   -0.16561E+01 12803   0.103E+01    0.792E+00
RMM:   3    -0.657300041664E+03    0.25986E+00   -0.11138E+00  9528   0.495E+00    0.328E+00
RMM:   4    -0.657341780427E+03   -0.41739E-01   -0.44160E-01 11263   0.186E+00    0.358E+00
RMM:   5    -0.657273290105E+03    0.68490E-01   -0.11008E-01 11129   0.102E+00    0.141E+00
RMM:   6    -0.657271738627E+03    0.15515E-02   -0.69335E-02 12778   0.484E-01    0.112E+00
RMM:   7    -0.657269376099E+03    0.23625E-02   -0.39411E-02 12060   0.428E-01    0.124E+00
RMM:   8    -0.657265845146E+03    0.35310E-02   -0.17491E-02 10334   0.461E-01    0.103E+00
RMM:   9    -0.657260179507E+03    0.56656E-02   -0.19034E-02 11832   0.327E-01    0.304E-01
RMM:  10    -0.657261917486E+03   -0.17380E-02   -0.67538E-03 11573   0.203E-01    0.643E-01
RMM:  11    -0.657259934608E+03    0.19829E-02   -0.34964E-03 11754   0.140E-01    0.110E-01
RMM:  12    -0.657260244795E+03   -0.31019E-03   -0.25544E-03 12461   0.842E-02    0.220E-01
RMM:  13    -0.657260065839E+03    0.17896E-03   -0.92789E-04 11424   0.759E-02    0.765E-02
RMM:  14    -0.657260097533E+03   -0.31694E-04   -0.75916E-04 11442   0.379E-02    0.328E-02
RMM:  15    -0.657260109731E+03   -0.12199E-04   -0.20453E-04  9236   0.431E-02    0.194E-02
RMM:  16    -0.657260137276E+03   -0.27544E-04   -0.34076E-04  8362   0.239E-02    0.105E-02
RMM:  17    -0.657260139562E+03   -0.22864E-05   -0.68146E-05  6550   0.255E-02
  10 F= -.65726014E+03 E0= -.65719465E+03  d E =-.194458E+00
 trial-energy change:   -0.194458  1 .order   -0.192680   -0.280087   -0.105272
 step:   1.1325(harm=  1.1706)  dis= 0.05510  next Energy=  -657.289392 (dE=-0.224E+00)
 bond charge predicted
       N       E                     dE             d eps       ncg     rms          rms(c)
DAV:   1    -0.656801531792E+03    0.45861E+00   -0.23442E+01  8736   0.282E+01    0.132E+00
RMM:   2    -0.657376612119E+03   -0.57508E+00   -0.50804E+00 12815   0.566E+00    0.410E+00
RMM:   3    -0.657304697550E+03    0.71915E-01   -0.33053E-01  9531   0.275E+00    0.190E+00
RMM:   4    -0.657314542347E+03   -0.98448E-02   -0.13597E-01 11259   0.103E+00    0.189E+00
RMM:   5    -0.657294522862E+03    0.20019E-01   -0.32482E-02 11092   0.559E-01    0.735E-01
RMM:   6    -0.657294863815E+03   -0.34095E-03   -0.20822E-02 12529   0.258E-01    0.679E-01
RMM:   7    -0.657292298682E+03    0.25651E-02   -0.12474E-02 12090   0.236E-01    0.388E-01
RMM:   8    -0.657293491931E+03   -0.11932E-02   -0.60838E-03 10540   0.257E-01    0.698E-01
RMM:   9    -0.657290936780E+03    0.25552E-02   -0.42026E-03 11283   0.184E-01    0.116E-01
RMM:  10    -0.657291117188E+03   -0.18041E-03   -0.24425E-03 12416   0.758E-02    0.174E-01
RMM:  11    -0.657291036620E+03    0.80568E-04   -0.74882E-04 10467   0.675E-02    0.982E-02
RMM:  12    -0.657291050286E+03   -0.13666E-04   -0.67722E-04 11229   0.444E-02    0.747E-02
RMM:  13    -0.657291059371E+03   -0.90851E-05   -0.24939E-04  8251   0.436E-02    0.629E-02
RMM:  14    -0.657291057942E+03    0.14286E-05   -0.25540E-04  8054   0.273E-02    0.171E-02
RMM:  15    -0.657291063481E+03   -0.55386E-05   -0.94022E-05  6731   0.250E-02
  11 F= -.65729106E+03 E0= -.65722784E+03  d E =-.225382E+00
 curvature:  -1.08 expect dE=-0.155E+00 dE for cont linesearch -0.233E-04
 trial: gam= 0.21404 g(F)=  0.130E+00 g(S)=  0.142E-01 ort = 0.392E-02 (trialstep = 0.811E+00)
 search vector abs. value=  0.178E+00
 bond charge predicted
       N       E                     dE             d eps       ncg     rms          rms(c)
DAV:   1    -0.657064137669E+03    0.22692E+00   -0.22686E+01 10776   0.260E+01    0.282E+00
RMM:   2    -0.658546712815E+03   -0.14826E+01   -0.45758E+00 10629   0.693E+00    0.130E+01
RMM:   3    -0.657437309316E+03    0.11094E+01   -0.78595E-01  9894   0.362E+00    0.376E+00
RMM:   4    -0.657381681243E+03    0.55628E-01   -0.24606E-01 11594   0.138E+00    0.170E+00
RMM:   5    -0.657380830083E+03    0.85116E-03   -0.75331E-02 11266   0.728E-01    0.201E+00
RMM:   6    -0.657362226344E+03    0.18604E-01   -0.20815E-02 10667   0.474E-01    0.617E-01
RMM:   7    -0.657362751026E+03   -0.52468E-03   -0.23910E-02 12130   0.326E-01    0.719E-01
RMM:   8    -0.657360619545E+03    0.21315E-02   -0.63336E-03 10549   0.278E-01    0.431E-01
RMM:   9    -0.657359837905E+03    0.78164E-03   -0.57818E-03 13223   0.142E-01    0.160E-01
RMM:  10    -0.657360205101E+03   -0.36720E-03   -0.20992E-03 11996   0.108E-01    0.282E-01
RMM:  11    -0.657359904234E+03    0.30087E-03   -0.13075E-03 11690   0.804E-02    0.761E-02
WARNING in EDDRMM: call to ZHEGV failed, returncode =   6  3      5
RMM:  12    -0.657360007839E+03   -0.10360E-03   -0.76566E-04 11400   0.552E-02    0.118E-01
RMM:  13    -0.657359972591E+03    0.35248E-04   -0.36495E-04 10918   0.459E-02    0.464E-02
RMM:  14    -0.657359995263E+03   -0.22672E-04   -0.32560E-04 10881   0.303E-02    0.281E-02
RMM:  15    -0.657359998640E+03   -0.33773E-05   -0.13251E-04  9027   0.335E-02    0.122E-02
RMM:  16    -0.657360006484E+03   -0.78443E-05   -0.13584E-04  8435   0.226E-02    0.547E-03
RMM:  17    -0.657360009907E+03   -0.34224E-05   -0.47970E-05  6642   0.214E-02
  12 F= -.65736001E+03 E0= -.65729717E+03  d E =-.689464E-01
 trial-energy change:   -0.068946  1 .order   -0.068923   -0.117248   -0.020598
 step:   0.9838(harm=  0.9838)  dis= 0.02093  next Energy=  -657.362182 (dE=-0.711E-01)
 bond charge predicted
       N       E                     dE             d eps       ncg     rms          rms(c)
DAV:   1    -0.657348616493E+03    0.11390E-01   -0.10257E+00 10992   0.555E+00    0.596E-01
RMM:   2    -0.657415970111E+03   -0.67354E-01   -0.21667E-01 10474   0.152E+00    0.281E+00
RMM:   3    -0.657366437291E+03    0.49533E-01   -0.37619E-02  9846   0.800E-01    0.890E-01
RMM:   4    -0.657363260608E+03    0.31767E-02   -0.11314E-02 11353   0.303E-01    0.343E-01
RMM:   5    -0.657363487782E+03   -0.22717E-03   -0.36522E-03 11115   0.156E-01    0.468E-01
RMM:   6    -0.657362424887E+03    0.10629E-02   -0.10017E-03  9301   0.110E-01    0.120E-01
RMM:   7    -0.657362517918E+03   -0.93031E-04   -0.12325E-03 11770   0.813E-02    0.182E-01
RMM:   8    -0.657362353572E+03    0.16435E-03   -0.33971E-04  9266   0.681E-02    0.746E-02
RMM:   9    -0.657362338329E+03    0.15243E-04   -0.30997E-04  9863   0.321E-02    0.429E-02
RMM:  10    -0.657362341896E+03   -0.35671E-05   -0.86750E-05  6523   0.285E-02
  13 F= -.65736234E+03 E0= -.65729959E+03  d E =-.712784E-01
 curvature:  -0.61 expect dE=-0.613E-01 dE for cont linesearch -0.969E-06
 trial: gam= 0.70400 g(F)=  0.324E-01 g(S)=  0.687E-01 ort = 0.534E-03 (trialstep = 0.792E+00)
 search vector abs. value=  0.190E+00
 bond charge predicted
       N       E                     dE             d eps       ncg     rms          rms(c)
DAV:   1    -0.657101655000E+03    0.26068E+00   -0.23724E+01 11616   0.291E+01    0.426E+00
RMM:   2    -0.660231086661E+03   -0.31294E+01   -0.77692E+00  9956   0.105E+01    0.192E+01
RMM:   3    -0.657502762198E+03    0.27283E+01   -0.16121E+00 10040   0.511E+00    0.464E+00
RMM:   4    -0.657431824663E+03    0.70938E-01   -0.34610E-01 11751   0.163E+00    0.224E+00
RMM:   5    -0.657436209628E+03   -0.43850E-02   -0.11780E-01 11134   0.958E-01    0.270E+00
RMM:   6    -0.657396289766E+03    0.39920E-01   -0.34858E-02 10027   0.696E-01    0.756E-01
RMM:   7    -0.657408676562E+03   -0.12387E-01   -0.37448E-02 11478   0.482E-01    0.172E+00
RMM:   8    -0.657393783963E+03    0.14893E-01   -0.14866E-02 10460   0.435E-01    0.479E-01
RMM:   9    -0.657392467259E+03    0.13167E-02   -0.10209E-02 13189   0.174E-01    0.188E-01
RMM:  10    -0.657393054364E+03   -0.58711E-03   -0.27127E-03 11566   0.151E-01    0.347E-01
RMM:  11    -0.657392643915E+03    0.41045E-03   -0.17648E-03 11862   0.900E-02    0.106E-01
RMM:  12    -0.657392801470E+03   -0.15756E-03   -0.10116E-03 11481   0.666E-02    0.144E-01
RMM:  13    -0.657392786514E+03    0.14957E-04   -0.51348E-04 11304   0.527E-02    0.646E-02
RMM:  14    -0.657392866986E+03   -0.80473E-04   -0.40765E-04 11479   0.405E-02    0.346E-02
RMM:  15    -0.657392911758E+03   -0.44771E-04   -0.21858E-04 10455   0.403E-02    0.130E-02
WARNING in EDDRMM: call to ZHEGV failed, returncode =   8  4      8
RMM:  16    -0.657392929062E+03   -0.17304E-04   -0.18632E-04  9811   0.283E-02    0.942E-03
RMM:  17    -0.657392936595E+03   -0.75327E-05   -0.86283E-05  7676   0.261E-02
  14 F= -.65739294E+03 E0= -.65733172E+03  d E =-.305947E-01
 trial-energy change:   -0.030595  1 .order   -0.029878   -0.080370    0.020614
 step:   0.6358(harm=  0.6304)  dis= 0.01534  next Energy=  -657.394966 (dE=-0.326E-01)
 bond charge predicted
       N       E                     dE             d eps       ncg     rms          rms(c)
DAV:   1    -0.657385433689E+03    0.74954E-02   -0.94425E-01 12144   0.574E+00    0.859E-01
RMM:   2    -0.657508581271E+03   -0.12315E+00   -0.26207E-01 10203   0.184E+00    0.392E+00
RMM:   3    -0.657402226226E+03    0.10636E+00   -0.62151E-02  9909   0.107E+00    0.115E+00
RMM:   4    -0.657396426252E+03    0.58000E-02   -0.14565E-02 11565   0.357E-01    0.400E-01
RMM:   5    -0.657396959688E+03   -0.53344E-03   -0.52958E-03 11383   0.187E-01    0.580E-01
RMM:   6    -0.657395220979E+03    0.17387E-02   -0.13314E-03  9628   0.138E-01    0.148E-01
RMM:   7    -0.657395419637E+03   -0.19866E-03   -0.14333E-03 10915   0.916E-02    0.250E-01
RMM:   8    -0.657395107343E+03    0.31229E-03   -0.41393E-04  8603   0.815E-02    0.101E-01
RMM:   9    -0.657395054254E+03    0.53089E-04   -0.33202E-04  9816   0.386E-02    0.557E-02
RMM:  10    -0.657395056558E+03   -0.23037E-05   -0.78126E-05  5826   0.312E-02
  15 F= -.65739506E+03 E0= -.65733358E+03  d E =-.327147E-01
 curvature:  -0.59 expect dE=-0.261E-01 dE for cont linesearch -0.651E-07
 trial: gam= 0.44258 g(F)=  0.316E-01 g(S)=  0.126E-01 ort =-0.145E-03 (trialstep = 0.761E+00)
 search vector abs. value=  0.814E-01
 bond charge predicted
       N       E                     dE             d eps       ncg     rms          rms(c)
DAV:   1    -0.657180757320E+03    0.21430E+00   -0.98054E+00  8832   0.193E+01    0.900E-01
RMM:   2    -0.657425876060E+03   -0.24512E+00   -0.24115E+00 12786   0.385E+00    0.194E+00
RMM:   3    -0.657427314690E+03   -0.14386E-02   -0.19091E-01  9578   0.182E+00    0.149E+00
RMM:   4    -0.657431284711E+03   -0.39700E-02   -0.56953E-02 11454   0.672E-01    0.136E+00
RMM:   5    -0.657419898944E+03    0.11386E-01   -0.14142E-02 10472   0.403E-01    0.356E-01
RMM:   6    -0.657421667310E+03   -0.17684E-02   -0.11098E-02 11790   0.207E-01    0.632E-01
RMM:   7    -0.657419581245E+03    0.20861E-02   -0.46671E-03 11561   0.182E-01    0.286E-01
RMM:   8    -0.657420326397E+03   -0.74515E-03   -0.32111E-03 10917   0.158E-01    0.508E-01
RMM:   9    -0.657418931114E+03    0.13953E-02   -0.14761E-03 10278   0.123E-01    0.605E-02
RMM:  10    -0.657419100510E+03   -0.16940E-03   -0.12789E-03 10505   0.522E-02    0.138E-01
RMM:  11    -0.657419017940E+03    0.82569E-04   -0.34736E-04  8493   0.448E-02    0.361E-02
RMM:  12    -0.657419042083E+03   -0.24143E-04   -0.27587E-04  8662   0.286E-02    0.545E-02
RMM:  13    -0.657419039555E+03    0.25275E-05   -0.98833E-05  6570   0.298E-02
  16 F= -.65741904E+03 E0= -.65735777E+03  d E =-.239830E-01
 trial-energy change:   -0.023983  1 .order   -0.023743   -0.033619   -0.013867
 step:   1.2383(harm=  1.2950)  dis= 0.01836  next Energy=  -657.423450 (dE=-0.284E-01)
 bond charge predicted
       N       E                     dE             d eps       ncg     rms          rms(c)
DAV:   1    -0.657328876940E+03    0.90165E-01   -0.38482E+00  8736   0.121E+01    0.565E-01
RMM:   2    -0.657426486959E+03   -0.97610E-01   -0.96645E-01 12789   0.244E+00    0.113E+00
RMM:   3    -0.657427890631E+03   -0.14037E-02   -0.74485E-02  9568   0.111E+00    0.956E-01
RMM:   4    -0.657429258660E+03   -0.13680E-02   -0.22589E-02 11572   0.420E-01    0.869E-01
RMM:   5    -0.657424674063E+03    0.45846E-02   -0.53028E-03 10384   0.249E-01    0.222E-01
RMM:   6    -0.657425526851E+03   -0.85279E-03   -0.47744E-03 11203   0.133E-01    0.433E-01
RMM:   7    -0.657424630337E+03    0.89651E-03   -0.21268E-03 11504   0.118E-01    0.194E-01
RMM:   8    -0.657424864679E+03   -0.23434E-03   -0.13479E-03 10519   0.105E-01    0.304E-01
RMM:   9    -0.657424360215E+03    0.50446E-03   -0.68063E-04 10004   0.798E-02    0.371E-02
RMM:  10    -0.657424425958E+03   -0.65743E-04   -0.54520E-04  9098   0.365E-02    0.819E-02
RMM:  11    -0.657424398104E+03    0.27854E-04   -0.14103E-04  7499   0.325E-02    0.235E-02
RMM:  12    -0.657424409042E+03   -0.10938E-04   -0.13478E-04  7670   0.210E-02    0.326E-02
RMM:  13    -0.657424409467E+03   -0.42556E-06   -0.44959E-05  5517   0.229E-02
  17 F= -.65742441E+03 E0= -.65736327E+03  d E =-.293529E-01
 curvature:  -1.18 expect dE=-0.241E-01 dE for cont linesearch -0.106E-03
 trial: gam= 0.34974 g(F)=  0.164E-01 g(S)=  0.404E-02 ort = 0.270E-02 (trialstep = 0.856E+00)
 search vector abs. value=  0.323E-01
 bond charge predicted
       N       E                     dE             d eps       ncg     rms          rms(c)
DAV:   1    -0.657308671566E+03    0.11574E+00   -0.52704E+00  9864   0.147E+01    0.936E-01
RMM:   2    -0.657507611224E+03   -0.19894E+00   -0.14100E+00 12776   0.299E+00    0.321E+00
RMM:   3    -0.657439422202E+03    0.68189E-01   -0.13963E-01  9593   0.163E+00    0.903E-01
RMM:   4    -0.657446510260E+03   -0.70881E-02   -0.45927E-02 11159   0.585E-01    0.128E+00
RMM:   5    -0.657437744245E+03    0.87660E-02   -0.10165E-02 10523   0.326E-01    0.319E-01
RMM:   6    -0.657439115389E+03   -0.13711E-02   -0.68062E-03 11435   0.166E-01    0.603E-01
RMM:   7    -0.657437393943E+03    0.17214E-02   -0.30829E-03 11502   0.157E-01    0.193E-01
RMM:   8    -0.657437818996E+03   -0.42505E-03   -0.20049E-03 10970   0.123E-01    0.358E-01
RMM:   9    -0.657437126634E+03    0.69236E-03   -0.93765E-04 10419   0.919E-02    0.749E-02
RMM:  10    -0.657437254003E+03   -0.12737E-03   -0.70639E-04 10414   0.515E-02    0.151E-01
RMM:  11    -0.657437150686E+03    0.10332E-03   -0.27140E-04  8714   0.413E-02    0.293E-02
RMM:  12    -0.657437166499E+03   -0.15813E-04   -0.18924E-04  8269   0.249E-02    0.413E-02
RMM:  13    -0.657437163818E+03    0.26807E-05   -0.61640E-05  6109   0.255E-02
  18 F= -.65743716E+03 E0= -.65737622E+03  d E =-.127544E-01
 trial-energy change:   -0.012754  1 .order   -0.012503   -0.018324   -0.006682
 step:   1.2688(harm=  1.3479)  dis= 0.01412  next Energy=  -657.438801 (dE=-0.144E-01)
 bond charge predicted
       N       E                     dE             d eps       ncg     rms          rms(c)
DAV:   1    -0.657409858743E+03    0.27308E-01   -0.12280E+00 10272   0.707E+00    0.449E-01
RMM:   2    -0.657455621746E+03   -0.45763E-01   -0.32117E-01 12703   0.144E+00    0.155E+00
RMM:   3    -0.657439564808E+03    0.16057E-01   -0.33957E-02  9530   0.822E-01    0.417E-01
RMM:   4    -0.657441273447E+03   -0.17086E-02   -0.10802E-02 11098   0.289E-01    0.607E-01
RMM:   5    -0.657439289692E+03    0.19838E-02   -0.25506E-03  9958   0.161E-01    0.139E-01
RMM:   6    -0.657439715411E+03   -0.42572E-03   -0.17202E-03 10301   0.878E-02    0.322E-01
RMM:   7    -0.657439243034E+03    0.47238E-03   -0.73999E-04 10963   0.818E-02    0.969E-02
RMM:   8    -0.657439342231E+03   -0.99197E-04   -0.52316E-04  9932   0.647E-02    0.170E-01
RMM:   9    -0.657439184738E+03    0.15749E-03   -0.23278E-04  8465   0.463E-02    0.349E-02
RMM:  10    -0.657439212845E+03   -0.28107E-04   -0.16641E-04  7229   0.297E-02    0.706E-02
RMM:  11    -0.657439190587E+03    0.22258E-04   -0.67239E-05  5953   0.271E-02    0.143E-02
RMM:  12    -0.657439193958E+03   -0.33711E-05   -0.44592E-05  5638   0.169E-02
  19 F= -.65743919E+03 E0= -.65737833E+03  d E =-.147845E-01
 curvature:  -0.99 expect dE=-0.189E-01 dE for cont linesearch -0.648E-04
 trial: gam= 0.93559 g(F)=  0.885E-02 g(S)=  0.102E-01 ort = 0.145E-02 (trialstep = 0.605E+00)
 search vector abs. value=  0.501E-01
 bond charge predicted
       N       E                     dE             d eps       ncg     rms          rms(c)
DAV:   1    -0.657347307894E+03    0.91883E-01   -0.40678E+00 10824   0.132E+01    0.117E+00
RMM:   2    -0.657656023459E+03   -0.30872E+00   -0.13019E+00 11186   0.336E+00    0.551E+00
RMM:   3    -0.657461392425E+03    0.19463E+00   -0.19083E-01  9931   0.158E+00    0.175E+00
RMM:   4    -0.657451186250E+03    0.10206E-01   -0.52989E-02 11401   0.587E-01    0.715E-01
RMM:   5    -0.657449958248E+03    0.12280E-02   -0.12666E-02 11136   0.293E-01    0.658E-01
RMM:   6    -0.657447909862E+03    0.20484E-02   -0.31456E-03 10453   0.174E-01    0.260E-01
RMM:   7    -0.657448645269E+03   -0.73541E-03   -0.39090E-03 11399   0.158E-01    0.452E-01
RMM:   8    -0.657447495462E+03    0.11498E-02   -0.12776E-03  9897   0.139E-01    0.127E-01
RMM:   9    -0.657447450725E+03    0.44736E-04   -0.97878E-04 12044   0.583E-02    0.769E-02
RMM:  10    -0.657447477027E+03   -0.26302E-04   -0.26341E-04  8862   0.436E-02    0.869E-02
RMM:  11    -0.657447466607E+03    0.10420E-04   -0.16798E-04  8378   0.290E-02    0.401E-02
RMM:  12    -0.657447473072E+03   -0.64644E-05   -0.83649E-05  6401   0.276E-02
  20 F= -.65744747E+03 E0= -.65738713E+03  d E =-.827911E-02
 trial-energy change:   -0.008279  1 .order   -0.008122   -0.012385   -0.003859
 step:   0.8427(harm=  0.8793)  dis= 0.01359  next Energy=  -657.448239 (dE=-0.905E-02)
 bond charge predicted
       N       E                     dE             d eps       ncg     rms          rms(c)
DAV:   1    -0.657434728309E+03    0.12738E-01   -0.64570E-01 11208   0.518E+00    0.460E-01
RMM:   2    -0.657480606214E+03   -0.45878E-01   -0.18427E-01 11057   0.122E+00    0.217E+00
RMM:   3    -0.657450619594E+03    0.29987E-01   -0.24985E-02  9660   0.661E-01    0.708E-01
RMM:   4    -0.657448825599E+03    0.17940E-02   -0.84712E-03 10886   0.249E-01    0.265E-01
RMM:   5    -0.657448752477E+03    0.73122E-04   -0.21246E-03 10799   0.113E-01    0.274E-01
RMM:   6    -0.657448390015E+03    0.36246E-03   -0.48689E-04  8630   0.742E-02    0.947E-02
RMM:   7    -0.657448517658E+03   -0.12764E-03   -0.62072E-04 11202   0.627E-02    0.171E-01
RMM:   8    -0.657448357054E+03    0.16060E-03   -0.20180E-04  8014   0.593E-02    0.498E-02
RMM:   9    -0.657448358808E+03   -0.17545E-05   -0.17255E-04  8930   0.268E-02    0.396E-02
RMM:  10    -0.657448359242E+03   -0.43355E-06   -0.43886E-05  5570   0.232E-02
  21 F= -.65744836E+03 E0= -.65738822E+03  d E =-.916528E-02
 curvature:  -1.06 expect dE=-0.168E-01 dE for cont linesearch -0.156E-04
 trial: gam= 0.86064 g(F)=  0.816E-02 g(S)=  0.770E-02 ort = 0.860E-03 (trialstep = 0.601E+00)
 search vector abs. value=  0.544E-01
 bond charge predicted
       N       E                     dE             d eps       ncg     rms          rms(c)
DAV:   1    -0.657346661623E+03    0.10170E+00   -0.44053E+00  8736   0.133E+01    0.694E-01
RMM:   2    -0.657483199059E+03   -0.13654E+00   -0.11501E+00 12877   0.257E+00    0.213E+00
RMM:   3    -0.657458239913E+03    0.24959E-01   -0.80970E-02  9512   0.128E+00    0.829E-01
RMM:   4    -0.657462190953E+03   -0.39510E-02   -0.29788E-02 11250   0.470E-01    0.102E+00
RMM:   5    -0.657456500967E+03    0.56900E-02   -0.61485E-03 10224   0.267E-01    0.281E-01
RMM:   6    -0.657457093777E+03   -0.59281E-03   -0.42704E-03 11198   0.129E-01    0.409E-01
RMM:   7    -0.657456399202E+03    0.69458E-03   -0.23860E-03 11635   0.116E-01    0.198E-01
RMM:   8    -0.657456534858E+03   -0.13566E-03   -0.11722E-03  9738   0.109E-01    0.264E-01
RMM:   9    -0.657456120926E+03    0.41393E-03   -0.68551E-04 10589   0.735E-02    0.386E-02
RMM:  10    -0.657456175286E+03   -0.54359E-04   -0.43769E-04  8963   0.382E-02    0.837E-02
RMM:  11    -0.657456148244E+03    0.27042E-04   -0.12929E-04  7201   0.325E-02    0.322E-02
RMM:  12    -0.657456155860E+03   -0.76162E-05   -0.10419E-04  6758   0.233E-02    0.369E-02
RMM:  13    -0.657456153335E+03    0.25244E-05   -0.45329E-05  5673   0.216E-02
  22 F= -.65745615E+03 E0= -.65739617E+03  d E =-.779409E-02
 trial-energy change:   -0.007794  1 .order   -0.007518   -0.009973   -0.005062
 step:   0.9972(harm=  1.2196)  dis= 0.01739  next Energy=  -657.457905 (dE=-0.955E-02)
 bond charge predicted
       N       E                     dE             d eps       ncg     rms          rms(c)
DAV:   1    -0.657411459743E+03    0.44696E-01   -0.19303E+00  8736   0.879E+00    0.458E-01
RMM:   2    -0.657470737198E+03   -0.59277E-01   -0.49742E-01 12831   0.170E+00    0.140E+00
RMM:   3    -0.657459395601E+03    0.11342E-01   -0.34843E-02  9490   0.855E-01    0.525E-01
RMM:   4    -0.657461316764E+03   -0.19212E-02   -0.13462E-02 11184   0.314E-01    0.683E-01
RMM:   5    -0.657458779270E+03    0.25375E-02   -0.27758E-03  9752   0.180E-01    0.169E-01
RMM:   6    -0.657459121325E+03   -0.34205E-03   -0.19130E-03 10429   0.884E-02    0.292E-01
RMM:   7    -0.657458760333E+03    0.36099E-03   -0.10210E-03 11485   0.803E-02    0.125E-01
RMM:   8    -0.657458835544E+03   -0.75211E-04   -0.56749E-04  9357   0.741E-02    0.175E-01
RMM:   9    -0.657458656218E+03    0.17933E-03   -0.30945E-04  9533   0.500E-02    0.259E-02
RMM:  10    -0.657458685673E+03   -0.29454E-04   -0.19849E-04  7352   0.296E-02    0.647E-02
RMM:  11    -0.657458668615E+03    0.17058E-04   -0.65283E-05  6015   0.270E-02    0.202E-02
RMM:  12    -0.657458672201E+03   -0.35861E-05   -0.50329E-05  5747   0.183E-02
  23 F= -.65745867E+03 E0= -.65739875E+03  d E =-.103130E-01
 curvature:  -1.74 expect dE=-0.163E-01 dE for cont linesearch -0.352E-03
 ZBRENT: increasing intervall
 opt :   1.7907  next Energy=  -657.457248 (dE=-0.889E-02)
 bond charge predicted
       N       E                     dE             d eps       ncg     rms          rms(c)
DAV:   1    -0.657268268753E+03    0.19040E+00   -0.77178E+00  8712   0.176E+01    0.917E-01
RMM:   2    -0.657504510110E+03   -0.23624E+00   -0.19930E+00 12846   0.343E+00    0.281E+00
RMM:   3    -0.657460590208E+03    0.43920E-01   -0.13747E-01  9563   0.167E+00    0.108E+00
RMM:   4    -0.657468079827E+03   -0.74896E-02   -0.53171E-02 11174   0.622E-01    0.137E+00
RMM:   5    -0.657457762321E+03    0.10318E-01   -0.10800E-02 10292   0.359E-01    0.333E-01
RMM:   6    -0.657459211069E+03   -0.14487E-02   -0.76986E-03 11663   0.171E-01    0.593E-01
RMM:   7    -0.657457647210E+03    0.15639E-02   -0.39660E-03 11894   0.152E-01    0.224E-01
RMM:   8    -0.657458009640E+03   -0.36243E-03   -0.22776E-03 10772   0.135E-01    0.353E-01
RMM:   9    -0.657457282360E+03    0.72728E-03   -0.10628E-03 10727   0.100E-01    0.600E-02
RMM:  10    -0.657457426090E+03   -0.14373E-03   -0.82616E-04 10551   0.492E-02    0.147E-01
RMM:  11    -0.657457334224E+03    0.91866E-04   -0.28428E-04  8817   0.428E-02    0.363E-02
RMM:  12    -0.657457346386E+03   -0.12162E-04   -0.21537E-04  8723   0.248E-02    0.330E-02
RMM:  13    -0.657457351290E+03   -0.49042E-05   -0.69123E-05  6259   0.265E-02
  24 F= -.65745735E+03 E0= -.65739756E+03  d E =-.899205E-02
 curvature:   7.05 expect dE= 0.209E+00 dE for cont linesearch  0.775E-02
 ZBRENT: bracketing found
 ZBRENT: interpolating
 opt :   1.2353  next Energy=  -657.459067 (dE=-0.107E-01)
 bond charge predicted
       N       E                     dE             d eps       ncg     rms          rms(c)
DAV:   1    -0.657369650909E+03    0.87695E-01   -0.38051E+00  8736   0.123E+01    0.648E-01
RMM:   2    -0.657488264559E+03   -0.11861E+00   -0.96657E-01 12834   0.238E+00    0.205E+00
RMM:   3    -0.657460224764E+03    0.28040E-01   -0.67754E-02  9577   0.123E+00    0.661E-01
RMM:   4    -0.657464524164E+03   -0.42994E-02   -0.26536E-02 11198   0.433E-01    0.964E-01
RMM:   5    -0.657459382856E+03    0.51413E-02   -0.51732E-03 10084   0.247E-01    0.185E-01
RMM:   6    -0.657460198228E+03   -0.81537E-03   -0.37633E-03 10928   0.133E-01    0.430E-01
RMM:   7    -0.657459344513E+03    0.85372E-03   -0.15270E-03 10336   0.122E-01    0.196E-01
RMM:   8    -0.657459579495E+03   -0.23498E-03   -0.10744E-03  9985   0.940E-02    0.293E-01
RMM:   9    -0.657459129700E+03    0.44980E-03   -0.54219E-04  9403   0.704E-02    0.379E-02
RMM:  10    -0.657459196191E+03   -0.66491E-04   -0.39395E-04  8285   0.367E-02    0.100E-01
RMM:  11    -0.657459154890E+03    0.41301E-04   -0.12089E-04  6350   0.319E-02    0.266E-02
RMM:  12    -0.657459163766E+03   -0.88753E-05   -0.86109E-05  6197   0.220E-02
  25 F= -.65745916E+03 E0= -.65739929E+03  d E =-.108045E-01
 curvature:  -0.36 expect dE=-0.485E-02 dE for cont linesearch -0.456E-05
 trial: gam= 0.80473 g(F)=  0.957E-02 g(S)=  0.393E-02 ort = 0.832E-03 (trialstep = 0.727E+00)
 search vector abs. value=  0.501E-01
 bond charge predicted
       N       E                     dE             d eps       ncg     rms          rms(c)
DAV:   1    -0.657320052187E+03    0.13910E+00   -0.61998E+00  8688   0.155E+01    0.628E-01
RMM:   2    -0.657471382789E+03   -0.15133E+00   -0.14830E+00 12655   0.300E+00    0.149E+00
RMM:   3    -0.657469008094E+03    0.23747E-02   -0.97210E-02  9645   0.132E+00    0.936E-01
RMM:   4    -0.657471735156E+03   -0.27271E-02   -0.35479E-02 11059   0.489E-01    0.859E-01
RMM:   5    -0.657467453682E+03    0.42815E-02   -0.64047E-03 10185   0.272E-01    0.297E-01
RMM:   6    -0.657467588830E+03   -0.13515E-03   -0.37154E-03 10849   0.115E-01    0.279E-01
RMM:   7    -0.657467553829E+03    0.35000E-04   -0.21023E-03 11045   0.104E-01    0.313E-01
RMM:   8    -0.657467127360E+03    0.42647E-03   -0.92307E-04  9170   0.109E-01    0.163E-01
RMM:   9    -0.657467007947E+03    0.11941E-03   -0.84081E-04 10562   0.712E-02    0.702E-02
RMM:  10    -0.657467079101E+03   -0.71154E-04   -0.33788E-04  7872   0.458E-02    0.128E-01
RMM:  11    -0.657466996004E+03    0.83097E-04   -0.15950E-04  6519   0.327E-02    0.169E-02
RMM:  12    -0.657467002745E+03   -0.67415E-05   -0.12225E-04  6870   0.215E-02    0.126E-02
RMM:  13    -0.657467005672E+03   -0.29264E-05   -0.33800E-05  5369   0.216E-02
  26 F= -.65746701E+03 E0= -.65740715E+03  d E =-.784191E-02
 trial-energy change:   -0.007842  1 .order   -0.007736   -0.010310   -0.005162
 step:   1.3234(harm=  1.4569)  dis= 0.02706  next Energy=  -657.469178 (dE=-0.100E-01)
 bond charge predicted
       N       E                     dE             d eps       ncg     rms          rms(c)
DAV:   1    -0.657374727610E+03    0.92275E-01   -0.41989E+00  8736   0.127E+01    0.511E-01
RMM:   2    -0.657473400817E+03   -0.98673E-01   -0.96702E-01 12631   0.240E+00    0.120E+00
RMM:   3    -0.657471305754E+03    0.20951E-02   -0.59092E-02  9602   0.110E+00    0.761E-01
RMM:   4    -0.657473334636E+03   -0.20289E-02   -0.25413E-02 11132   0.411E-01    0.705E-01
RMM:   5    -0.657470424202E+03    0.29104E-02   -0.43974E-03  9914   0.220E-01    0.238E-01
RMM:   6    -0.657470569075E+03   -0.14487E-03   -0.27419E-03 10738   0.957E-02    0.235E-01
RMM:   7    -0.657470557686E+03    0.11389E-04   -0.15249E-03 11123   0.874E-02    0.262E-01
RMM:   8    -0.657470259436E+03    0.29825E-03   -0.65506E-04  8996   0.906E-02    0.130E-01
RMM:   9    -0.657470195973E+03    0.63463E-04   -0.60558E-04 10485   0.572E-02    0.640E-02
RMM:  10    -0.657470232775E+03   -0.36802E-04   -0.24018E-04  7154   0.395E-02    0.967E-02
RMM:  11    -0.657470187588E+03    0.45187E-04   -0.11848E-04  6349   0.297E-02    0.171E-02
RMM:  12    -0.657470199422E+03   -0.11834E-04   -0.75037E-05  5975   0.217E-02    0.405E-02
RMM:  13    -0.657470192836E+03    0.65861E-05   -0.36749E-05  5545   0.228E-02
  27 F= -.65747019E+03 E0= -.65741031E+03  d E =-.110291E-01
 curvature:  -2.49 expect dE=-0.256E-01 dE for cont linesearch -0.239E-03
 ZBRENT: extrapolating
 opt :   1.5900  next Energy=  -657.470485 (dE=-0.113E-01)
 bond charge predicted
       N       E                     dE             d eps       ncg     rms          rms(c)
DAV:   1    -0.657451605055E+03    0.18594E-01   -0.84293E-01  8952   0.566E+00    0.227E-01
RMM:   2    -0.657471155639E+03   -0.19551E-01   -0.19277E-01 12595   0.107E+00    0.501E-01
RMM:   3    -0.657470940391E+03    0.21525E-03   -0.11787E-02  9477   0.490E-01    0.356E-01
RMM:   4    -0.657471264517E+03   -0.32413E-03   -0.50061E-03 10982   0.184E-01    0.310E-01
RMM:   5    -0.657470689518E+03    0.57500E-03   -0.91385E-04  8332   0.101E-01    0.993E-02
RMM:   6    -0.657470743030E+03   -0.53512E-04   -0.60644E-04  9207   0.459E-02    0.116E-01
RMM:   7    -0.657470715704E+03    0.27326E-04   -0.32504E-04 10078   0.431E-02    0.103E-01
RMM:   8    -0.657470679949E+03    0.35755E-04   -0.13001E-04  7091   0.426E-02    0.664E-02
RMM:   9    -0.657470661022E+03    0.18927E-04   -0.11564E-04  7474   0.299E-02    0.282E-02
RMM:  10    -0.657470670022E+03   -0.89997E-05   -0.52580E-05  5582   0.230E-02
  28 F= -.65747067E+03 E0= -.65741073E+03  d E =-.115063E-01
 curvature:  -3.05 expect dE=-0.405E-01 dE for cont linesearch -0.282E-04
 trial: gam= 0.87150 g(F)=  0.793E-02 g(S)=  0.537E-02 ort = 0.682E-03 (trialstep = 0.858E+00)
 search vector abs. value=  0.525E-01
 bond charge predicted
       N       E                     dE             d eps       ncg     rms          rms(c)
DAV:   1    -0.657309610658E+03    0.16105E+00   -0.89800E+00 10392   0.176E+01    0.128E+00
RMM:   2    -0.657699727587E+03   -0.39012E+00   -0.21032E+00 12178   0.362E+00    0.553E+00
RMM:   3    -0.657488435073E+03    0.21129E+00   -0.21537E-01  9620   0.216E+00    0.173E+00
RMM:   4    -0.657484013943E+03    0.44211E-02   -0.85816E-02 11307   0.750E-01    0.964E-01
RMM:   5    -0.657480237464E+03    0.37765E-02   -0.18892E-02 11076   0.338E-01    0.663E-01
RMM:   6    -0.657478558846E+03    0.16786E-02   -0.50893E-03 10590   0.195E-01    0.346E-01
RMM:   7    -0.657479063050E+03   -0.50420E-03   -0.54024E-03 11288   0.189E-01    0.484E-01
RMM:   8    -0.657477803947E+03    0.12591E-02   -0.19312E-03 10216   0.163E-01    0.174E-01
RMM:   9    -0.657477770667E+03    0.33279E-04   -0.16068E-03 12258   0.785E-02    0.146E-01
RMM:  10    -0.657477757916E+03    0.12752E-04   -0.54963E-04 10164   0.580E-02    0.108E-01
RMM:  11    -0.657477734946E+03    0.22969E-04   -0.32146E-04  9492   0.353E-02    0.350E-02
RMM:  12    -0.657477757450E+03   -0.22503E-04   -0.12363E-04  7477   0.305E-02    0.530E-02
RMM:  13    -0.657477759809E+03   -0.23592E-05   -0.10936E-04  6794   0.266E-02    0.225E-02
RMM:  14    -0.657477773935E+03   -0.14126E-04   -0.72664E-05  6359   0.201E-02    0.978E-03
RMM:  15    -0.657477781586E+03   -0.76509E-05   -0.40791E-05  5730   0.207E-02
  29 F= -.65747778E+03 E0= -.65741785E+03  d E =-.711156E-02
 trial-energy change:   -0.007112  1 .order   -0.006938   -0.011922   -0.001954
 step:   1.0081(harm=  1.0265)  dis= 0.02320  next Energy=  -657.477953 (dE=-0.728E-02)
 bond charge predicted
       N       E                     dE             d eps       ncg     rms          rms(c)
DAV:   1    -0.657472707145E+03    0.50668E-02   -0.27306E-01 10608   0.307E+00    0.221E-01
RMM:   2    -0.657484218265E+03   -0.11511E-01   -0.63612E-02 12279   0.618E-01    0.940E-01
RMM:   3    -0.657478304803E+03    0.59135E-02   -0.64398E-03  9381   0.375E-01    0.304E-01
RMM:   4    -0.657478156131E+03    0.14867E-03   -0.25391E-03 10121   0.134E-01    0.170E-01
RMM:   5    -0.657478049744E+03    0.10639E-03   -0.63472E-04  8974   0.629E-02    0.116E-01
RMM:   6    -0.657477999177E+03    0.50567E-04   -0.17022E-04  6785   0.389E-02    0.589E-02
RMM:   7    -0.657478023194E+03   -0.24017E-04   -0.17403E-04  8963   0.374E-02    0.865E-02
RMM:   8    -0.657477984821E+03    0.38373E-04   -0.63764E-05  5916   0.340E-02    0.298E-02
RMM:   9    -0.657477987639E+03   -0.28185E-05   -0.50042E-05  5643   0.205E-02
  30 F= -.65747799E+03 E0= -.65741804E+03  d E =-.731762E-02
 curvature:  -1.92 expect dE=-0.305E-01 dE for cont linesearch -0.383E-05
 trial: gam= 1.19162 g(F)=  0.592E-02 g(S)=  0.999E-02 ort = 0.324E-03 (trialstep = 0.511E+00)
 search vector abs. value=  0.913E-01
 bond charge predicted
       N       E                     dE             d eps       ncg     rms          rms(c)
DAV:   1    -0.657373532669E+03    0.10445E+00   -0.53738E+00  8736   0.134E+01    0.762E-01
RMM:   2    -0.657521309742E+03   -0.14778E+00   -0.11838E+00 12840   0.259E+00    0.241E+00
RMM:   3    -0.657485654160E+03    0.35656E-01   -0.90428E-02  9566   0.139E+00    0.834E-01
RMM:   4    -0.657490875172E+03   -0.52210E-02   -0.36634E-02 11245   0.505E-01    0.109E+00
RMM:   5    -0.657484311962E+03    0.65632E-02   -0.78480E-03 10559   0.278E-01    0.232E-01
RMM:   6    -0.657485369791E+03   -0.10578E-02   -0.52580E-03 11295   0.149E-01    0.481E-01
RMM:   7    -0.657484405365E+03    0.96443E-03   -0.23695E-03 11048   0.138E-01    0.254E-01
RMM:   8    -0.657484445378E+03   -0.40013E-04   -0.13057E-03  9913   0.114E-01    0.275E-01
RMM:   9    -0.657484063839E+03    0.38154E-03   -0.10204E-03 11117   0.777E-02    0.500E-02
RMM:  10    -0.657484153968E+03   -0.90129E-04   -0.51559E-04  9224   0.444E-02    0.121E-01
RMM:  11    -0.657484090260E+03    0.63708E-04   -0.19737E-04  7653   0.354E-02    0.292E-02
RMM:  12    -0.657484105704E+03   -0.15444E-04   -0.12958E-04  6944   0.252E-02    0.457E-02
RMM:  13    -0.657484098723E+03    0.69805E-05   -0.56683E-05  5965   0.241E-02
  31 F= -.65748410E+03 E0= -.65742372E+03  d E =-.611108E-02
 trial-energy change:   -0.006111  1 .order   -0.005880   -0.008327   -0.003434
 step:   0.7635(harm=  0.8700)  dis= 0.02431  next Energy=  -657.484973 (dE=-0.699E-02)
 bond charge predicted
       N       E                     dE             d eps       ncg     rms          rms(c)
DAV:   1    -0.657458483817E+03    0.25622E-01   -0.13101E+00  8784   0.655E+00    0.377E-01
RMM:   2    -0.657495232237E+03   -0.36748E-01   -0.29121E-01 12811   0.128E+00    0.121E+00
RMM:   3    -0.657485835033E+03    0.93972E-02   -0.21374E-02  9484   0.679E-01    0.414E-01
RMM:   4    -0.657487035676E+03   -0.12006E-02   -0.89979E-03 11104   0.248E-01    0.528E-01
RMM:   5    -0.657485501876E+03    0.15338E-02   -0.19649E-03  9947   0.137E-01    0.119E-01
RMM:   6    -0.657485726371E+03   -0.22449E-03   -0.12850E-03 10023   0.757E-02    0.222E-01
RMM:   7    -0.657485535951E+03    0.19042E-03   -0.64512E-04 10937   0.684E-02    0.134E-01
RMM:   8    -0.657485528137E+03    0.78146E-05   -0.32549E-04  8621   0.617E-02    0.130E-01
RMM:   9    -0.657485444149E+03    0.83988E-04   -0.25841E-04  9064   0.394E-02    0.240E-02
RMM:  10    -0.657485464667E+03   -0.20518E-04   -0.11583E-04  6447   0.270E-02    0.593E-02
RMM:  11    -0.657485449760E+03    0.14907E-04   -0.53087E-05  5795   0.241E-02    0.152E-02
RMM:  12    -0.657485453609E+03   -0.38487E-05   -0.35555E-05  5380   0.172E-02
  32 F= -.65748545E+03 E0= -.65742485E+03  d E =-.746597E-02
 curvature:  -2.22 expect dE=-0.142E-01 dE for cont linesearch -0.176E-03
 ZBRENT: increasing intervall
 opt :   1.2679  next Energy=  -657.484781 (dE=-0.679E-02)
 bond charge predicted
       N       E                     dE             d eps       ncg     rms          rms(c)
DAV:   1    -0.657371536032E+03    0.11391E+00   -0.51865E+00  8640   0.131E+01    0.761E-01
RMM:   2    -0.657522772336E+03   -0.15124E+00   -0.12023E+00 12821   0.265E+00    0.246E+00
RMM:   3    -0.657486741610E+03    0.36031E-01   -0.10100E-01  9620   0.134E+00    0.859E-01
RMM:   4    -0.657491148339E+03   -0.44067E-02   -0.34092E-02 11171   0.485E-01    0.106E+00
RMM:   5    -0.657484945634E+03    0.62027E-02   -0.74975E-03 10538   0.273E-01    0.231E-01
RMM:   6    -0.657485913726E+03   -0.96809E-03   -0.51199E-03 11246   0.147E-01    0.456E-01
RMM:   7    -0.657485061332E+03    0.85239E-03   -0.23846E-03 11210   0.135E-01    0.255E-01
RMM:   8    -0.657485087914E+03   -0.26582E-04   -0.12739E-03 10152   0.112E-01    0.271E-01
RMM:   9    -0.657484718672E+03    0.36924E-03   -0.95923E-04 11215   0.746E-02    0.527E-02
RMM:  10    -0.657484805800E+03   -0.87129E-04   -0.50422E-04  9404   0.443E-02    0.120E-01
RMM:  11    -0.657484744340E+03    0.61460E-04   -0.19417E-04  8045   0.350E-02    0.292E-02
RMM:  12    -0.657484759448E+03   -0.15108E-04   -0.12767E-04  7109   0.249E-02    0.456E-02
RMM:  13    -0.657484752449E+03    0.69990E-05   -0.55403E-05  6042   0.245E-02
  33 F= -.65748475E+03 E0= -.65742374E+03  d E =-.676481E-02
 curvature:   8.48 expect dE= 0.130E+00 dE for cont linesearch  0.420E-02
 ZBRENT: bracketing found
 ZBRENT: interpolating
 opt :   0.9077  next Energy=  -657.485648 (dE=-0.766E-02)
 bond charge predicted
       N       E                     dE             d eps       ncg     rms          rms(c)
DAV:   1    -0.657431282439E+03    0.53477E-01   -0.26747E+00  8736   0.936E+00    0.545E-01
RMM:   2    -0.657509479571E+03   -0.78197E-01   -0.60394E-01 12860   0.184E+00    0.179E+00
RMM:   3    -0.657486466773E+03    0.23013E-01   -0.42761E-02  9541   0.965E-01    0.550E-01
RMM:   4    -0.657489217517E+03   -0.27507E-02   -0.17898E-02 11084   0.343E-01    0.780E-01
RMM:   5    -0.657485920359E+03    0.32972E-02   -0.35116E-03 10226   0.190E-01    0.183E-01
RMM:   6    -0.657486195420E+03   -0.27506E-03   -0.22030E-03 10152   0.102E-01    0.277E-01
RMM:   7    -0.657485895985E+03    0.29943E-03   -0.12114E-03 10743   0.929E-02    0.191E-01
RMM:   8    -0.657485905625E+03   -0.96399E-05   -0.57645E-04  8825   0.840E-02    0.207E-01
RMM:   9    -0.657485689655E+03    0.21597E-03   -0.43134E-04  9912   0.560E-02    0.277E-02
RMM:  10    -0.657485719042E+03   -0.29387E-04   -0.23267E-04  7132   0.293E-02    0.596E-02
RMM:  11    -0.657485705063E+03    0.13979E-04   -0.60239E-05  5729   0.287E-02    0.213E-02
RMM:  12    -0.657485712517E+03   -0.74535E-05   -0.55117E-05  5772   0.175E-02
  34 F= -.65748571E+03 E0= -.65742498E+03  d E =-.772488E-02
 curvature:  -0.39 expect dE=-0.309E-02 dE for cont linesearch -0.458E-05
 trial: gam= 0.39426 g(F)=  0.616E-02 g(S)=  0.174E-02 ort = 0.103E-02 (trialstep = 0.591E+00)
 search vector abs. value=  0.229E-01
 bond charge predicted
       N       E                     dE             d eps       ncg     rms          rms(c)
DAV:   1    -0.657452761521E+03    0.32944E-01   -0.17811E+00  8736   0.755E+00    0.316E-01
RMM:   2    -0.657491265602E+03   -0.38504E-01   -0.37689E-01 12138   0.150E+00    0.782E-01
RMM:   3    -0.657489731089E+03    0.15345E-02   -0.27470E-02 10121   0.626E-01    0.411E-01
RMM:   4    -0.657490255851E+03   -0.52476E-03   -0.89443E-03 11184   0.234E-01    0.372E-01
RMM:   5    -0.657489592601E+03    0.66325E-03   -0.19086E-03  9004   0.119E-01    0.124E-01
RMM:   6    -0.657489719049E+03   -0.12645E-03   -0.95748E-04  9819   0.627E-02    0.189E-01
RMM:   7    -0.657489557316E+03    0.16173E-03   -0.48141E-04  9657   0.614E-02    0.113E-01
RMM:   8    -0.657489545759E+03    0.11557E-04   -0.33516E-04  8804   0.557E-02    0.104E-01
RMM:   9    -0.657489480030E+03    0.65729E-04   -0.16964E-04  7746   0.408E-02    0.327E-02
RMM:  10    -0.657489509775E+03   -0.29745E-04   -0.10852E-04  6050   0.273E-02    0.785E-02
RMM:  11    -0.657489480791E+03    0.28984E-04   -0.44029E-05  5470   0.256E-02    0.125E-02
RMM:  12    -0.657489485687E+03   -0.48960E-05   -0.32581E-05  5397   0.148E-02
  35 F= -.65748949E+03 E0= -.65742848E+03  d E =-.377317E-02
 trial-energy change:   -0.003773  1 .order   -0.003782   -0.004903   -0.002662
 step:   1.2920(harm=  1.2920)  dis= 0.02070  next Energy=  -657.491076 (dE=-0.536E-02)
 bond charge predicted
       N       E                     dE             d eps       ncg     rms          rms(c)
DAV:   1    -0.657439181525E+03    0.50299E-01   -0.25150E+00  8736   0.906E+00    0.374E-01
RMM:   2    -0.657493179582E+03   -0.53998E-01   -0.53315E-01 12168   0.179E+00    0.875E-01
RMM:   3    -0.657491728732E+03    0.14509E-02   -0.38206E-02 10128   0.743E-01    0.510E-01
RMM:   4    -0.657492355123E+03   -0.62639E-03   -0.13022E-02 11353   0.280E-01    0.429E-01
RMM:   5    -0.657491483043E+03    0.87208E-03   -0.27474E-03  9615   0.141E-01    0.150E-01
RMM:   6    -0.657491651433E+03   -0.16839E-03   -0.14589E-03 10314   0.740E-02    0.218E-01
RMM:   7    -0.657491464745E+03    0.18669E-03   -0.72158E-04 10277   0.717E-02    0.143E-01
RMM:   8    -0.657491451766E+03    0.12979E-04   -0.53177E-04  9397   0.674E-02    0.134E-01
RMM:   9    -0.657491345821E+03    0.10595E-03   -0.27968E-04  8715   0.492E-02    0.414E-02
RMM:  10    -0.657491392345E+03   -0.46525E-04   -0.17371E-04  6622   0.318E-02    0.978E-02
RMM:  11    -0.657491347247E+03    0.45098E-04   -0.73379E-05  5835   0.292E-02    0.177E-02
RMM:  12    -0.657491355411E+03   -0.81637E-05   -0.55593E-05  5754   0.177E-02
  36 F= -.65749136E+03 E0= -.65743001E+03  d E =-.564289E-02
 curvature:  -1.78 expect dE=-0.863E-02 dE for cont linesearch -0.126E-04
 trial: gam= 0.53751 g(F)=  0.377E-02 g(S)=  0.108E-02 ort = 0.403E-03 (trialstep = 0.731E+00)
 search vector abs. value=  0.119E-01
 bond charge predicted
       N       E                     dE             d eps       ncg     rms          rms(c)
DAV:   1    -0.657467954148E+03    0.23393E-01   -0.13195E+00  9576   0.662E+00    0.513E-01
RMM:   2    -0.657529036774E+03   -0.61083E-01   -0.32386E-01 12314   0.153E+00    0.227E+00
RMM:   3    -0.657496242652E+03    0.32794E-01   -0.34699E-02  9729   0.804E-01    0.719E-01
RMM:   4    -0.657495088136E+03    0.11545E-02   -0.12573E-02 10678   0.310E-01    0.395E-01
RMM:   5    -0.657494291292E+03    0.79684E-03   -0.29375E-03 11140   0.138E-01    0.225E-01
RMM:   6    -0.657494168617E+03    0.12268E-03   -0.98131E-04 10254   0.797E-02    0.159E-01
RMM:   7    -0.657494173314E+03   -0.46971E-05   -0.87079E-04 11270   0.768E-02    0.178E-01
RMM:   8    -0.657494029603E+03    0.14371E-03   -0.32739E-04  9229   0.662E-02    0.893E-02
RMM:   9    -0.657494025745E+03    0.38583E-05   -0.27132E-04  9515   0.372E-02    0.804E-02
RMM:  10    -0.657494003761E+03    0.21984E-04   -0.91511E-05  6147   0.287E-02    0.321E-02
RMM:  11    -0.657494006477E+03   -0.27167E-05   -0.58045E-05  5848   0.222E-02
  37 F= -.65749401E+03 E0= -.65743259E+03  d E =-.265107E-02
 trial-energy change:   -0.002651  1 .order   -0.002578   -0.003697   -0.001459
 step:   1.0987(harm=  1.2071)  dis= 0.01166  next Energy=  -657.494383 (dE=-0.303E-02)
 bond charge predicted
       N       E                     dE             d eps       ncg     rms          rms(c)
DAV:   1    -0.657487874792E+03    0.61290E-02   -0.33468E-01  9912   0.333E+00    0.261E-01
RMM:   2    -0.657503746674E+03   -0.15872E-01   -0.82315E-02 12252   0.770E-01    0.117E+00
RMM:   3    -0.657495068023E+03    0.86787E-02   -0.89852E-03  9552   0.408E-01    0.367E-01
RMM:   4    -0.657494752419E+03    0.31560E-03   -0.32849E-03 10431   0.162E-01    0.197E-01
RMM:   5    -0.657494577510E+03    0.17491E-03   -0.78745E-04  9771   0.717E-02    0.121E-01
RMM:   6    -0.657494532738E+03    0.44772E-04   -0.26060E-04  8129   0.440E-02    0.740E-02
RMM:   7    -0.657494575513E+03   -0.42774E-04   -0.24516E-04  9998   0.422E-02    0.115E-01
RMM:   8    -0.657494507216E+03    0.68296E-04   -0.90377E-05  6619   0.398E-02    0.361E-02
RMM:   9    -0.657494514046E+03   -0.68300E-05   -0.74743E-05  6165   0.234E-02
  38 F= -.65749451E+03 E0= -.65743305E+03  d E =-.315864E-02
 curvature:  -1.35 expect dE=-0.566E-02 dE for cont linesearch -0.505E-04
 trial: gam= 0.81710 g(F)=  0.141E-02 g(S)=  0.280E-02 ort = 0.668E-03 (trialstep = 0.722E+00)
 search vector abs. value=  0.132E-01
 bond charge predicted
       N       E                     dE             d eps       ncg     rms          rms(c)
DAV:   1    -0.657472679007E+03    0.21828E-01   -0.13839E+00 10416   0.682E+00    0.773E-01
RMM:   2    -0.657577507838E+03   -0.10483E+00   -0.37689E-01 10791   0.196E+00    0.323E+00
RMM:   3    -0.657500019068E+03    0.77489E-01   -0.62951E-02  9889   0.973E-01    0.870E-01
RMM:   4    -0.657498154720E+03    0.18643E-02   -0.16927E-02 11915   0.329E-01    0.498E-01
RMM:   5    -0.657496923304E+03    0.12314E-02   -0.41126E-03 11518   0.171E-01    0.292E-01
RMM:   6    -0.657496679777E+03    0.24353E-03   -0.12262E-03 10047   0.112E-01    0.228E-01
RMM:   7    -0.657496671619E+03    0.81582E-05   -0.12802E-03 11107   0.950E-02    0.242E-01
RMM:   8    -0.657496396717E+03    0.27490E-03   -0.49704E-04  9168   0.888E-02    0.119E-01
RMM:   9    -0.657496345844E+03    0.50873E-04   -0.42542E-04 10609   0.436E-02    0.760E-02
RMM:  10    -0.657496336491E+03    0.93531E-05   -0.13981E-04  7054   0.344E-02    0.525E-02
RMM:  11    -0.657496327388E+03    0.91036E-05   -0.79092E-05  6361   0.233E-02
  39 F= -.65749633E+03 E0= -.65743458E+03  d E =-.181334E-02
 trial-energy change:   -0.001813  1 .order   -0.001766   -0.003435   -0.000096
 step:   0.7415(harm=  0.7431)  dis= 0.00732  next Energy=  -657.496329 (dE=-0.181E-02)
 bond charge predicted
       N       E                     dE             d eps       ncg     rms          rms(c)
DAV:   1    -0.657496323583E+03    0.12908E-04   -0.11100E-03 12168   0.187E-01    0.347E-02
RMM:   2    -0.657496565095E+03   -0.24151E-03   -0.37598E-04  7876   0.709E-02    0.183E-01
RMM:   3    -0.657496338176E+03    0.22692E-03   -0.98101E-05  6162   0.483E-02    0.299E-02
RMM:   4    -0.657496335068E+03    0.31081E-05   -0.19594E-05  5138   0.188E-02
  40 F= -.65749634E+03 E0= -.65743459E+03  d E =-.182102E-02
 curvature:  -1.03 expect dE=-0.176E-02 dE for cont linesearch -0.130E-05
 trial: gam= 0.50291 g(F)=  0.108E-02 g(S)=  0.628E-03 ort =-0.129E-03 (trialstep = 0.726E+00)
 search vector abs. value=  0.493E-02
 bond charge predicted
       N       E                     dE             d eps       ncg     rms          rms(c)
DAV:   1    -0.657485743693E+03    0.10594E-01   -0.50216E-01  8616   0.386E+00    0.167E-01
RMM:   2    -0.657497153153E+03   -0.11409E-01   -0.11439E-01 12572   0.894E-01    0.275E-01
RMM:   3    -0.657497686457E+03   -0.53330E-03   -0.91931E-03  9853   0.320E-01    0.296E-01
RMM:   4    -0.657497581106E+03    0.10535E-03   -0.24433E-03 11373   0.124E-01    0.175E-01
RMM:   5    -0.657497403811E+03    0.17729E-03   -0.47915E-04  8816   0.709E-02    0.655E-02
RMM:   6    -0.657497451583E+03   -0.47772E-04   -0.30017E-04  9013   0.405E-02    0.115E-01
RMM:   7    -0.657497380289E+03    0.71294E-04   -0.17827E-04  9224   0.377E-02    0.507E-02
RMM:   8    -0.657497405256E+03   -0.24967E-04   -0.10569E-04  6919   0.356E-02    0.848E-02
RMM:   9    -0.657497370760E+03    0.34496E-04   -0.51585E-05  5609   0.289E-02    0.274E-02
RMM:  10    -0.657497377691E+03   -0.69307E-05   -0.40238E-05  5414   0.224E-02
  41 F= -.65749738E+03 E0= -.65743559E+03  d E =-.104262E-02
 trial-energy change:   -0.001043  1 .order   -0.000990   -0.001195   -0.000785
 step:   1.3100(harm=  2.1194)  dis= 0.00693  next Energy=  -657.497721 (dE=-0.139E-02)
 bond charge predicted
       N       E                     dE             d eps       ncg     rms          rms(c)
DAV:   1    -0.657490201712E+03    0.71690E-02   -0.32335E-01  8400   0.310E+00    0.139E-01
RMM:   2    -0.657497854905E+03   -0.76532E-02   -0.74442E-02 12591   0.716E-01    0.304E-01
RMM:   3    -0.657497897406E+03   -0.42501E-04   -0.60221E-03  9694   0.267E-01    0.220E-01
RMM:   4    -0.657497957871E+03   -0.60465E-04   -0.16922E-03 11051   0.104E-01    0.175E-01
RMM:   5    -0.657497763419E+03    0.19445E-03   -0.32376E-04  7890   0.635E-02    0.518E-02
RMM:   6    -0.657497802290E+03   -0.38872E-04   -0.24845E-04  8409   0.348E-02    0.916E-02
RMM:   7    -0.657497761536E+03    0.40754E-04   -0.13863E-04  8575   0.321E-02    0.457E-02
RMM:   8    -0.657497770422E+03   -0.88857E-05   -0.63749E-05  5952   0.288E-02
  42 F= -.65749777E+03 E0= -.65743596E+03  d E =-.143535E-02
 curvature:  -2.10 expect dE=-0.175E-02 dE for cont linesearch -0.882E-04
 ZBRENT: increasing intervall
 opt :   2.4777  next Energy=  -657.497569 (dE=-0.123E-02)
 bond charge predicted
       N       E                     dE             d eps       ncg     rms          rms(c)
DAV:   1    -0.657467378961E+03    0.30383E-01   -0.12937E+00  8400   0.621E+00    0.279E-01
RMM:   2    -0.657498266128E+03   -0.30887E-01   -0.29636E-01 12566   0.144E+00    0.668E-01
RMM:   3    -0.657497801079E+03    0.46505E-03   -0.24060E-02  9883   0.535E-01    0.415E-01
RMM:   4    -0.657498183924E+03   -0.38285E-03   -0.69005E-03 11481   0.207E-01    0.355E-01
RMM:   5    -0.657497372333E+03    0.81159E-03   -0.12781E-03  9580   0.126E-01    0.112E-01
RMM:   6    -0.657497501963E+03   -0.12963E-03   -0.99726E-04 10068   0.630E-02    0.172E-01
RMM:   7    -0.657497355284E+03    0.14668E-03   -0.54850E-04 10786   0.560E-02    0.888E-02
RMM:   8    -0.657497397699E+03   -0.42415E-04   -0.25819E-04  8828   0.533E-02    0.128E-01
RMM:   9    -0.657497322160E+03    0.75539E-04   -0.16606E-04  8205   0.385E-02    0.433E-02
RMM:  10    -0.657497334659E+03   -0.12499E-04   -0.99753E-05  5929   0.267E-02    0.573E-02
RMM:  11    -0.657497319396E+03    0.15263E-04   -0.45320E-05  5576   0.233E-02    0.996E-03
RMM:  12    -0.657497323571E+03   -0.41752E-05   -0.34242E-05  5540   0.134E-02
  43 F= -.65749732E+03 E0= -.65743542E+03  d E =-.988503E-03
 curvature:   4.79 expect dE= 0.121E-01 dE for cont linesearch  0.134E-02
 ZBRENT: bracketing found
 ZBRENT: interpolating
 opt :   1.6357  next Energy=  -657.497844 (dE=-0.151E-02)
 bond charge predicted
       N       E                     dE             d eps       ncg     rms          rms(c)
DAV:   1    -0.657482230668E+03    0.15089E-01   -0.67287E-01  8400   0.449E+00    0.198E-01
RMM:   2    -0.657497816068E+03   -0.15585E-01   -0.15381E-01 12590   0.103E+00    0.379E-01
RMM:   3    -0.657498244695E+03   -0.42863E-03   -0.12230E-02  9774   0.380E-01    0.334E-01
RMM:   4    -0.657498258037E+03   -0.13341E-04   -0.31946E-03 10899   0.147E-01    0.250E-01
RMM:   5    -0.657497858920E+03    0.39912E-03   -0.60283E-04  8592   0.846E-02    0.764E-02
RMM:   6    -0.657497907872E+03   -0.48952E-04   -0.41854E-04  8808   0.454E-02    0.115E-01
RMM:   7    -0.657497841471E+03    0.66401E-04   -0.24299E-04  9143   0.422E-02    0.806E-02
RMM:   8    -0.657497840814E+03    0.65639E-06   -0.95783E-05  6633   0.385E-02
  44 F= -.65749784E+03 E0= -.65743595E+03  d E =-.150575E-02
 curvature:  -0.26 expect dE=-0.334E-03 dE for cont linesearch -0.215E-05
 trial: gam= 0.98398 g(F)=  0.715E-03 g(S)=  0.549E-03 ort =-0.201E-03 (trialstep = 0.793E+00)
 search vector abs. value=  0.564E-02
 bond charge predicted
       N       E                     dE             d eps       ncg     rms          rms(c)
DAV:   1    -0.657476880597E+03    0.20961E-01   -0.72988E-01  8400   0.521E+00    0.267E-01
RMM:   2    -0.657500299324E+03   -0.23419E-01   -0.21394E-01 12833   0.116E+00    0.671E-01
RMM:   3    -0.657498414965E+03    0.18844E-02   -0.17888E-02  9630   0.494E-01    0.290E-01
RMM:   4    -0.657499260069E+03   -0.84510E-03   -0.44129E-03 10991   0.183E-01    0.449E-01
RMM:   5    -0.657498202232E+03    0.10578E-02   -0.86455E-04  8889   0.111E-01    0.108E-01
RMM:   6    -0.657498239479E+03   -0.37247E-04   -0.64235E-04  9376   0.534E-02    0.123E-01
RMM:   7    -0.657498155722E+03    0.83757E-04   -0.37665E-04 10398   0.496E-02    0.830E-02
RMM:   8    -0.657498172801E+03   -0.17079E-04   -0.13661E-04  7420   0.454E-02    0.110E-01
RMM:   9    -0.657498112681E+03    0.60120E-04   -0.10282E-04  7325   0.301E-02    0.228E-02
RMM:  10    -0.657498122456E+03   -0.97750E-05   -0.52641E-05  5516   0.234E-02
  45 F= -.65749812E+03 E0= -.65743618E+03  d E =-.281642E-03
 trial-energy change:   -0.000282  1 .order   -0.000389   -0.000846    0.000068
 step:   0.6527(harm=  0.7343)  dis= 0.00280  next Energy=  -657.498129 (dE=-0.288E-03)
 bond charge predicted
       N       E                     dE             d eps       ncg     rms          rms(c)
DAV:   1    -0.657497460384E+03    0.65230E-03   -0.23049E-02  9024   0.928E-01    0.480E-02
RMM:   2    -0.657498198363E+03   -0.73798E-03   -0.66161E-03 12718   0.206E-01    0.131E-01
RMM:   3    -0.657498123406E+03    0.74957E-04   -0.57472E-04  7727   0.908E-02    0.502E-02
RMM:   4    -0.657498142859E+03   -0.19453E-04   -0.10240E-04  6280   0.353E-02    0.719E-02
RMM:   5    -0.657498115556E+03    0.27302E-04   -0.28747E-05  5161   0.278E-02    0.221E-02
RMM:   6    -0.657498115251E+03    0.30497E-06   -0.12390E-05  4837   0.155E-02
  46 F= -.65749812E+03 E0= -.65743618E+03  d E =-.274437E-03
 curvature:   1.77 expect dE= 0.138E-02 dE for cont linesearch  0.208E-04
 ZBRENT: interpolating
 opt :   0.7583  next Energy=  -657.498124 (dE=-0.283E-03)
 bond charge predicted
       N       E                     dE             d eps       ncg     rms          rms(c)
DAV:   1    -0.657497750984E+03    0.36457E-03   -0.12957E-02  9072   0.697E-01    0.416E-02
RMM:   2    -0.657498281924E+03   -0.53094E-03   -0.38515E-03 12411   0.161E-01    0.182E-01
RMM:   3    -0.657498124199E+03    0.15773E-03   -0.35391E-04  7241   0.731E-02    0.464E-02
RMM:   4    -0.657498130548E+03   -0.63488E-05   -0.76375E-05  5921   0.320E-02
  47 F= -.65749813E+03 E0= -.65743619E+03  d E =-.289733E-03
 curvature:  -0.13 expect dE=-0.807E-04 dE for cont linesearch -0.143E-05
 ZBRENT: bisectioning
 opt :   0.7055  next Energy=  -657.498150 (dE=-0.310E-03)
 bond charge predicted
       N       E                     dE             d eps       ncg     rms          rms(c)
DAV:   1    -0.657498041507E+03    0.82692E-04   -0.33015E-03 11472   0.358E-01    0.301E-02
RMM:   2    -0.657498320213E+03   -0.27871E-03   -0.96334E-04  9696   0.857E-02    0.198E-01
RMM:   3    -0.657498117088E+03    0.20313E-03   -0.12530E-04  6041   0.477E-02    0.217E-02
RMM:   4    -0.657498120703E+03   -0.36146E-05   -0.27211E-05  5284   0.204E-02
  48 F= -.65749812E+03 E0= -.65743618E+03  d E =-.279889E-03
 curvature:  -1.77 expect dE=-0.188E-02 dE for cont linesearch -0.139E-04
 trial: gam= 0.61497 g(F)=  0.528E-03 g(S)=  0.533E-03 ort = 0.210E-03 (trialstep = 0.776E+00)
 search vector abs. value=  0.345E-02
 bond charge predicted
       N       E                     dE             d eps       ncg     rms          rms(c)
DAV:   1    -0.657489494878E+03    0.86222E-02   -0.44971E-01 11472   0.423E+00    0.461E-01
RMM:   2    -0.657528725694E+03   -0.39231E-01   -0.13411E-01 10353   0.121E+00    0.205E+00
RMM:   3    -0.657500075521E+03    0.28650E-01   -0.22483E-02  9868   0.590E-01    0.619E-01
RMM:   4    -0.657498686674E+03    0.13888E-02   -0.61875E-03 11116   0.224E-01    0.258E-01
RMM:   5    -0.657498489422E+03    0.19725E-03   -0.17088E-03 11162   0.105E-01    0.234E-01
RMM:   6    -0.657498246079E+03    0.24334E-03   -0.40063E-04  8348   0.722E-02    0.106E-01
RMM:   7    -0.657498271829E+03   -0.25750E-04   -0.47868E-04 10751   0.517E-02    0.123E-01
RMM:   8    -0.657498211705E+03    0.60124E-04   -0.14680E-04  7051   0.526E-02    0.789E-02
RMM:   9    -0.657498195870E+03    0.15835E-04   -0.11821E-04  7489   0.300E-02    0.614E-02
RMM:  10    -0.657498181892E+03    0.13978E-04   -0.47014E-05  5521   0.241E-02    0.233E-02
RMM:  11    -0.657498184381E+03   -0.24889E-05   -0.27838E-05  5359   0.183E-02
  49 F= -.65749818E+03 E0= -.65743625E+03  d E =-.636782E-04
 trial-energy change:   -0.000064  1 .order   -0.000198   -0.000924    0.000527
 step:   0.3860(harm=  0.4939)  dis= 0.00102  next Energy=  -657.498334 (dE=-0.213E-03)
 bond charge predicted
       N       E                     dE             d eps       ncg     rms          rms(c)
DAV:   1    -0.657496223705E+03    0.19582E-02   -0.11488E-01 11616   0.212E+00    0.227E-01
RMM:   2    -0.657505449877E+03   -0.92262E-02   -0.32388E-02 10475   0.584E-01    0.989E-01
RMM:   3    -0.657498783625E+03    0.66663E-02   -0.52842E-03  9585   0.293E-01    0.302E-01
RMM:   4    -0.657498469931E+03    0.31369E-03   -0.15588E-03 10833   0.116E-01    0.133E-01
RMM:   5    -0.657498404039E+03    0.65892E-04   -0.41140E-04  9817   0.547E-02    0.113E-01
RMM:   6    -0.657498345019E+03    0.59020E-04   -0.85692E-05  6214   0.399E-02    0.544E-02
RMM:   7    -0.657498355902E+03   -0.10884E-04   -0.11008E-04  7224   0.312E-02    0.758E-02
RMM:   8    -0.657498325814E+03    0.30088E-04   -0.37880E-05  5252   0.296E-02    0.335E-02
RMM:   9    -0.657498323178E+03    0.26366E-05   -0.24044E-05  5025   0.206E-02
  50 F= -.65749832E+03 E0= -.65743639E+03  d E =-.202475E-03
 curvature:  -0.61 expect dE=-0.232E-03 dE for cont linesearch -0.647E-06
 trial: gam= 0.22581 g(F)=  0.294E-03 g(S)=  0.858E-04 ort = 0.604E-04 (trialstep = 0.698E+00)
 search vector abs. value=  0.583E-03
 bond charge predicted
       N       E                     dE             d eps       ncg     rms          rms(c)
DAV:   1    -0.657497510421E+03    0.81539E-03   -0.56044E-02  9192   0.129E+00    0.848E-02
RMM:   2    -0.657499167055E+03   -0.16566E-02   -0.11483E-02 12614   0.289E-01    0.308E-01
RMM:   3    -0.657498546925E+03    0.62013E-03   -0.10271E-03  9050   0.152E-01    0.103E-01
RMM:   4    -0.657498568861E+03   -0.21936E-04   -0.41657E-04  8652   0.615E-02    0.962E-02
RMM:   5    -0.657498512606E+03    0.56255E-04   -0.71502E-05  5648   0.315E-02    0.287E-02
RMM:   6    -0.657498517289E+03   -0.46832E-05   -0.40007E-05  5431   0.223E-02
  51 F= -.65749852E+03 E0= -.65743650E+03  d E =-.194112E-03
 trial-energy change:   -0.000194  1 .order   -0.000183   -0.000275   -0.000091
 step:   1.0452(harm=  1.0452)  dis= 0.00148  next Energy=  -657.498529 (dE=-0.206E-03)
 bond charge predicted
       N       E                     dE             d eps       ncg     rms          rms(c)
DAV:   1    -0.657498317346E+03    0.19526E-03   -0.13973E-02 10320   0.642E-01    0.548E-02
RMM:   2    -0.657499010830E+03   -0.69348E-03   -0.30031E-03 11557   0.156E-01    0.278E-01
RMM:   3    -0.657498565195E+03    0.44564E-03   -0.37517E-04  7862   0.917E-02    0.737E-02
RMM:   4    -0.657498551411E+03    0.13783E-04   -0.14049E-04  7363   0.378E-02    0.397E-02
RMM:   5    -0.657498546762E+03    0.46488E-05   -0.36885E-05  5398   0.207E-02
  52 F= -.65749855E+03 E0= -.65743650E+03  d E =-.223585E-03
 curvature:  -0.77 expect dE=-0.127E-03 dE for cont linesearch -0.533E-07
 trial: gam= 0.24500 g(F)=  0.146E-03 g(S)=  0.185E-04 ort = 0.633E-05 (trialstep = 0.767E+00)
 search vector abs. value=  0.202E-03
 bond charge predicted
       N       E                     dE             d eps       ncg     rms          rms(c)
DAV:   1    -0.657498481529E+03    0.69882E-04   -0.21771E-02 10704   0.714E-01    0.116E-01
RMM:   2    -0.657500484377E+03   -0.20028E-02   -0.45192E-03 10243   0.251E-01    0.498E-01
RMM:   3    -0.657498703340E+03    0.17810E-02   -0.10241E-03  8827   0.143E-01    0.142E-01
RMM:   4    -0.657498623795E+03    0.79545E-04   -0.24071E-04  8644   0.548E-02    0.592E-02
RMM:   5    -0.657498616988E+03    0.68069E-05   -0.80131E-05  6257   0.306E-02
  53 F= -.65749862E+03 E0= -.65743657E+03  d E =-.702258E-04
 trial-energy change:   -0.000070  1 .order   -0.000081   -0.000127   -0.000034
 step:   1.0501(harm=  1.0501)  dis= 0.00057  next Energy=  -657.498634 (dE=-0.871E-04)
 bond charge predicted
       N       E                     dE             d eps       ncg     rms          rms(c)
DAV:   1    -0.657498587121E+03    0.36674E-04   -0.30596E-03 12024   0.272E-01    0.543E-02
RMM:   2    -0.657499080246E+03   -0.49312E-03   -0.71801E-04  8872   0.100E-01    0.271E-01
RMM:   3    -0.657498615465E+03    0.46478E-03   -0.22237E-04  7091   0.730E-02    0.688E-02
RMM:   4    -0.657498591296E+03    0.24169E-04   -0.41791E-05  5485   0.281E-02    0.263E-02
RMM:   5    -0.657498589808E+03    0.14881E-05   -0.20310E-05  5042   0.213E-02
  54 F= -.65749859E+03 E0= -.65743651E+03  d E =-.430456E-04
 curvature:  -0.64 expect dE=-0.184E-03 dE for cont linesearch -0.213E-05
 trial: gam= 1.93812 g(F)=  0.684E-04 g(S)=  0.219E-03 ort =-0.260E-04 (trialstep = 0.176E+00)
 search vector abs. value=  0.947E-03
 bond charge predicted
       N       E                     dE             d eps       ncg     rms          rms(c)
DAV:   1    -0.657498580955E+03    0.10341E-04   -0.52669E-03 10032   0.313E-01    0.305E-02
RMM:   2    -0.657498806012E+03   -0.22506E-03   -0.75091E-04 10342   0.828E-02    0.169E-01
RMM:   3    -0.657498638705E+03    0.16731E-03   -0.11000E-04  6346   0.512E-02    0.441E-02
RMM:   4    -0.657498630014E+03    0.86913E-05   -0.33784E-05  5489   0.227E-02
  55 F= -.65749863E+03 E0= -.65743656E+03  d E =-.402057E-04
 trial-energy change:   -0.000040  1 .order   -0.000036   -0.000042   -0.000030
 step:   0.6370(harm=  0.6370)  dis= 0.00088  next Energy=  -657.498665 (dE=-0.755E-04)
 bond charge predicted
       N       E                     dE             d eps       ncg     rms          rms(c)
DAV:   1    -0.657498340908E+03    0.29780E-03   -0.35496E-02  9264   0.808E-01    0.764E-02
RMM:   2    -0.657499588196E+03   -0.12473E-02   -0.51762E-03 11838   0.203E-01    0.360E-01
RMM:   3    -0.657498744654E+03    0.84354E-03   -0.66973E-04  8569   0.118E-01    0.107E-01
RMM:   4    -0.657498711233E+03    0.33421E-04   -0.27383E-04  8532   0.480E-02    0.524E-02
RMM:   5    -0.657498705530E+03    0.57031E-05   -0.74180E-05  6167   0.258E-02
  56 F= -.65749871E+03 E0= -.65743663E+03  d E =-.115722E-03
 curvature:  -1.27 expect dE=-0.835E-03 dE for cont linesearch -0.613E-05
 trial: gam= 0.97237 g(F)=  0.132E-03 g(S)=  0.525E-03 ort = 0.676E-04 (trialstep = 0.151E+00)
 search vector abs. value=  0.168E-02
 bond charge predicted
       N       E                     dE             d eps       ncg     rms          rms(c)
DAV:   1    -0.657498851575E+03   -0.14034E-03   -0.71236E-03 11736   0.415E-01    0.131E-01
RMM:   2    -0.657501243258E+03   -0.23917E-02   -0.30880E-03  9549   0.228E-01    0.573E-01
RMM:   3    -0.657498852850E+03    0.23904E-02   -0.10372E-03  8291   0.153E-01    0.151E-01
RMM:   4    -0.657498744766E+03    0.10808E-03   -0.15744E-04  7487   0.530E-02    0.616E-02
RMM:   5    -0.657498763041E+03   -0.18275E-04   -0.10002E-04  7432   0.322E-02    0.933E-02
RMM:   6    -0.657498720027E+03    0.43014E-04   -0.31842E-05  5130   0.272E-02    0.233E-02
RMM:   7    -0.657498723289E+03   -0.32619E-05   -0.22461E-05  5093   0.185E-02
  57 F= -.65749872E+03 E0= -.65743669E+03  d E =-.177585E-04
 trial-energy change:   -0.000018  1 .order   -0.000068   -0.000109   -0.000026
 step:   0.1983(harm=  0.1983)  dis= 0.00029  next Energy=  -657.498777 (dE=-0.716E-04)
 bond charge predicted
       N       E                     dE             d eps       ncg     rms          rms(c)
DAV:   1    -0.657498728190E+03   -0.81633E-05   -0.68843E-04 12096   0.135E-01    0.452E-02
RMM:   2    -0.657499068190E+03   -0.34000E-03   -0.38656E-04  7482   0.778E-02    0.218E-01
RMM:   3    -0.657498737421E+03    0.33077E-03   -0.13805E-04  6489   0.575E-02    0.578E-02
RMM:   4    -0.657498719802E+03    0.17619E-04   -0.16848E-05  5030   0.188E-02    0.157E-02
RMM:   5    -0.657498722855E+03   -0.30534E-05   -0.78224E-06  4493   0.144E-02
  58 F= -.65749872E+03 E0= -.65743669E+03  d E =-.173251E-04
 curvature:  -0.23 expect dE=-0.295E-04 dE for cont linesearch -0.572E-06
 ZBRENT: increasing intervall
 opt :   0.2930  next Energy=  -657.498719 (dE=-0.132E-04)
 bond charge predicted
       N       E                     dE             d eps       ncg     rms          rms(c)
DAV:   1    -0.657498737634E+03   -0.17832E-04   -0.27733E-03 11544   0.259E-01    0.806E-02
RMM:   2    -0.657499675851E+03   -0.93822E-03   -0.11982E-03  8894   0.143E-01    0.357E-01
RMM:   3    -0.657498745953E+03    0.92990E-03   -0.40420E-04  7481   0.982E-02    0.962E-02
RMM:   4    -0.657498700799E+03    0.45154E-04   -0.53147E-05  5486   0.337E-02    0.338E-02
RMM:   5    -0.657498708132E+03   -0.73328E-05   -0.28504E-05  5040   0.241E-02
  59 F= -.65749871E+03 E0= -.65743668E+03  d E =-.260188E-05
 curvature:   1.66 expect dE= 0.253E-03 dE for cont linesearch  0.138E-04
 ZBRENT: bracketing found
 ZBRENT: interpolating
 opt :   0.2318  next Energy=  -657.498724 (dE=-0.184E-04)
 bond charge predicted
       N       E                     dE             d eps       ncg     rms          rms(c)
DAV:   1    -0.657498735786E+03   -0.34987E-04   -0.13080E-03 11592   0.177E-01    0.471E-02
RMM:   2    -0.657499083264E+03   -0.34748E-03   -0.44491E-04  8138   0.876E-02    0.227E-01
RMM:   3    -0.657498748797E+03    0.33447E-03   -0.14612E-04  6675   0.616E-02    0.699E-02
RMM:   4    -0.657498723757E+03    0.25040E-04   -0.22599E-05  5129   0.229E-02    0.196E-02
RMM:   5    -0.657498722174E+03    0.15826E-05   -0.90843E-06  4198   0.164E-02
  60 F= -.65749872E+03 E0= -.65743671E+03  d E =-.166441E-04
 curvature:  -0.13 expect dE=-0.441E-04 dE for cont linesearch -0.621E-05
 ZBRENT: interpolating
 opt :   0.2045  next Energy=  -657.498723 (dE=-0.175E-04)
 bond charge predicted
       N       E                     dE             d eps       ncg     rms          rms(c)
DAV:   1    -0.657498734058E+03   -0.10301E-04   -0.24144E-04 11808   0.805E-02    0.298E-02
RMM:   2    -0.657498891610E+03   -0.15755E-03   -0.15771E-04  6774   0.514E-02    0.162E-01
RMM:   3    -0.657498736263E+03    0.15535E-03   -0.60777E-05  5673   0.408E-02    0.380E-02
RMM:   4    -0.657498728237E+03    0.80255E-05   -0.77904E-06  4316   0.132E-02
  61 F= -.65749873E+03 E0= -.65743670E+03  d E =-.227067E-04
 curvature:  -0.00 expect dE=-0.127E-05 dE for cont linesearch -0.160E-06
 ZBRENT: interpolating
 opt :   0.1995  next Energy=  -657.498723 (dE=-0.174E-04)
 bond charge predicted
       N       E                     dE             d eps       ncg     rms          rms(c)
DAV:   1    -0.657498729614E+03    0.66486E-05   -0.11925E-05  5040   0.244E-02    0.192E-02
RMM:   2    -0.657498836549E+03   -0.10694E-03   -0.60266E-05  5873   0.339E-02    0.141E-01
RMM:   3    -0.657498729683E+03    0.10687E-03   -0.29841E-05  5268   0.290E-02    0.208E-02
RMM:   4    -0.657498726857E+03    0.28265E-05   -0.36928E-06  4098   0.820E-03
  62 F= -.65749873E+03 E0= -.65743670E+03  d E =-.213265E-04
 curvature:  -0.00 expect dE=-0.216E-06 dE for cont linesearch -0.463E-08
 ZBRENT: interpolating
 opt :   0.1988  next Energy=  -657.498723 (dE=-0.173E-04)
 bond charge predicted
       N       E                     dE             d eps       ncg     rms          rms(c)
DAV:   1    -0.657498726909E+03    0.27746E-05   -0.29006E-06  5040   0.118E-02    0.717E-03
RMM:   2    -0.657498738334E+03   -0.11425E-04   -0.82601E-06  4674   0.132E-02    0.460E-02
RMM:   3    -0.657498726749E+03    0.11584E-04   -0.47039E-06  3690   0.115E-02    0.917E-03
RMM:   4    -0.657498726290E+03    0.45908E-06   -0.76840E-07  3096   0.356E-03
  63 F= -.65749873E+03 E0= -.65743670E+03  d E =-.207600E-04
 curvature:  -0.00 expect dE=-0.753E-06 dE for cont linesearch -0.249E-07
 ZBRENT: interpolating
 opt :   0.1985  next Energy=  -657.498723 (dE=-0.173E-04)
 bond charge predicted
       N       E                     dE             d eps       ncg     rms          rms(c)
DAV:   1    -0.657498726326E+03    0.42308E-06   -0.80742E-07  4752   0.551E-03    0.390E-03
RMM:   2    -0.657498730285E+03   -0.39589E-05   -0.23269E-06  3409   0.757E-03
  64 F= -.65749873E+03 E0= -.65743671E+03  d E =-.247548E-04
 curvature:  -0.00 expect dE=-0.163E-06 dE for cont linesearch -0.100E-07
 ZBRENT: interpolating
 opt :   0.1987  next Energy=  -657.498726 (dE=-0.208E-04)
 bond charge predicted
       N       E                     dE             d eps       ncg     rms          rms(c)
DAV:   1    -0.657498726130E+03    0.19604E-06   -0.10053E-05  5040   0.179E-02    0.416E-03
RMM:   2    -0.657498731034E+03   -0.49037E-05   -0.26846E-06  3177   0.715E-03
  65 F= -.65749873E+03 E0= -.65743670E+03  d E =-.255036E-04
 curvature:  -0.00 expect dE=-0.200E-06 dE for cont linesearch -0.204E-07
 ZBRENT: interpolating
 opt :   0.1986  next Energy=  -657.498730 (dE=-0.248E-04)
 bond charge predicted
       N       E                     dE             d eps       ncg     rms          rms(c)
DAV:   1    -0.657498726216E+03   -0.85391E-07   -0.12066E-05  5040   0.197E-02    0.543E-03
RMM:   2    -0.657498734144E+03   -0.79285E-05   -0.38105E-06  3291   0.893E-03
  66 F= -.65749873E+03 E0= -.65743670E+03  d E =-.286138E-04
 curvature:  -0.00 expect dE=-0.402E-07 dE for cont linesearch -0.112E-07
 ZBRENT: interpolating
 opt :   0.1986  next Energy=  -657.498731 (dE=-0.255E-04)
 bond charge predicted
       N       E                     dE             d eps       ncg     rms          rms(c)
DAV:   1    -0.657498726281E+03   -0.65229E-07   -0.22227E-05  5136   0.236E-02    0.805E-03
RMM:   2    -0.657498745322E+03   -0.19042E-04   -0.10339E-05  4061   0.134E-02    0.594E-02
RMM:   3    -0.657498726837E+03    0.18485E-04   -0.59853E-06  3640   0.128E-02    0.113E-02
RMM:   4    -0.657498725821E+03    0.10167E-05   -0.58421E-07  2939   0.367E-03
  67 F= -.65749873E+03 E0= -.65743670E+03  d E =-.202904E-04
 curvature:  -0.00 expect dE=-0.112E-07 dE for cont linesearch -0.335E-09
 ZBRENT: interpolating
 opt :   0.1986  next Energy=  -657.498726 (dE=-0.203E-04)
 bond charge predicted
       N       E                     dE             d eps       ncg     rms          rms(c)
DAV:   1    -0.657498725851E+03    0.98694E-06   -0.31270E-07  4800   0.295E-03    0.162E-03
RMM:   2    -0.657498726572E+03   -0.72141E-06   -0.54797E-07  2953   0.373E-03
  68 F= -.65749873E+03 E0= -.65743670E+03  d E =-.210416E-04
 curvature:  -0.00 expect dE=-0.533E-07 dE for cont linesearch -0.174E-08
 ZBRENT: bisectioning
 opt :   0.1986  next Energy=  -657.498727 (dE=-0.210E-04)
 bond charge predicted
       N       E                     dE             d eps       ncg     rms          rms(c)
DAV:   1    -0.657498725850E+03    0.97498E-09   -0.14428E-06  4872   0.775E-03    0.157E-03
RMM:   2    -0.657498726602E+03   -0.75286E-06   -0.39114E-07  2745   0.291E-03
  69 F= -.65749873E+03 E0= -.65743670E+03  d E =-.210721E-04
 curvature:  -0.00 expect dE=-0.612E-07 dE for cont linesearch -0.172E-08
 ZBRENT: bisectioning
 opt :   0.1986  next Energy=  -657.498727 (dE=-0.211E-04)
 bond charge predicted
       N       E                     dE             d eps       ncg     rms          rms(c)
DAV:   1    -0.657498725827E+03    0.22439E-07   -0.15294E-06  5040   0.754E-03    0.122E-03
RMM:   2    -0.657498726203E+03   -0.37588E-06   -0.19505E-07  2420   0.219E-03
  70 F= -.65749873E+03 E0= -.65743670E+03  d E =-.206727E-04
 curvature:  -0.00 expect dE=-0.313E-07 dE for cont linesearch -0.783E-09
 ZBRENT: bisectioning
 opt :   0.1986  next Energy=  -657.498726 (dE=-0.207E-04)
 bond charge predicted
       N       E                     dE             d eps       ncg     rms          rms(c)
DAV:   1    -0.657498725798E+03    0.29468E-07   -0.89121E-07  5040   0.549E-03    0.127E-03
RMM:   2    -0.657498726283E+03   -0.48491E-06   -0.24004E-07  2676   0.239E-03
  71 F= -.65749873E+03 E0= -.65743670E+03  d E =-.207523E-04
 curvature:  -0.00 expect dE=-0.171E-07 dE for cont linesearch -0.497E-09
 ZBRENT: bisectioning
 opt :   0.1986  next Energy=  -657.498726 (dE=-0.208E-04)
 bond charge predicted
       N       E                     dE             d eps       ncg     rms          rms(c)
DAV:   1    -0.657498725791E+03    0.65338E-08   -0.10206E-06  5040   0.588E-03    0.113E-03
RMM:   2    -0.657498726121E+03   -0.32983E-06   -0.15357E-07  2306   0.198E-03
  72 F= -.65749873E+03 E0= -.65743670E+03  d E =-.205907E-04
 curvature:  -0.00 expect dE=-0.766E-08 dE for cont linesearch -0.113E-09
 ZBRENT: bisectioning
 opt :   0.1986  next Energy=  -657.498726 (dE=-0.206E-04)
 bond charge predicted
       N       E                     dE             d eps       ncg     rms          rms(c)
DAV:   1    -0.657498725773E+03    0.18474E-07   -0.87158E-07  4992   0.493E-03    0.128E-03
RMM:   2    -0.657498726283E+03   -0.51028E-06   -0.23188E-07  2677   0.235E-03
  73 F= -.65749873E+03 E0= -.65743670E+03  d E =-.207526E-04
 curvature:  -0.00 expect dE=-0.536E-08 dE for cont linesearch -0.213E-09
 ZBRENT: bisectioning
 opt :   0.1986  next Energy=  -657.498726 (dE=-0.208E-04)
 bond charge predicted
       N       E                     dE             d eps       ncg     rms          rms(c)
DAV:   1    -0.657498725781E+03   -0.87821E-08   -0.11177E-06  4968   0.584E-03    0.135E-03
RMM:   2    -0.657498726235E+03   -0.45350E-06   -0.21990E-07  2568   0.229E-03
  74 F= -.65749873E+03 E0= -.65743670E+03  d E =-.207046E-04
 curvature:  -0.00 expect dE=-0.160E-08 dE for cont linesearch -0.237E-11
 trial: gam= 0.15465 g(F)=  0.118E-03 g(S)=  0.212E-04 ort =-0.186E-04 (trialstep = 0.160E+00)
 search vector abs. value=  0.174E-03
 bond charge predicted
       N       E                     dE             d eps       ncg     rms          rms(c)
DAV:   1    -0.657498732551E+03   -0.67692E-05   -0.77953E-04  9168   0.145E-01    0.921E-03
RMM:   2    -0.657498749805E+03   -0.17254E-04   -0.12452E-04  7666   0.306E-02    0.283E-02
RMM:   3    -0.657498743729E+03    0.60762E-05   -0.11973E-05  4183   0.225E-02
  75 F= -.65749874E+03 E0= -.65743673E+03  d E =-.174938E-04
 trial-energy change:   -0.000017  1 .order   -0.000017   -0.000022   -0.000011
 step:   0.3312(harm=  0.3312)  dis= 0.00035  next Energy=  -657.498749 (dE=-0.226E-04)
 bond charge predicted
       N       E                     dE             d eps       ncg     rms          rms(c)
DAV:   1    -0.657498746288E+03    0.35170E-05   -0.94266E-04  9216   0.156E-01    0.179E-02
RMM:   2    -0.657498824968E+03   -0.78681E-04   -0.20766E-04  8125   0.415E-02    0.107E-01
RMM:   3    -0.657498761104E+03    0.63865E-04   -0.33409E-05  5304   0.313E-02    0.208E-02
RMM:   4    -0.657498758976E+03    0.21272E-05   -0.89683E-06  4354   0.135E-02
  76 F= -.65749876E+03 E0= -.65743674E+03  d E =-.327415E-04
 curvature:  -0.21 expect dE=-0.812E-05 dE for cont linesearch -0.287E-05
 trial: gam=-0.15155 g(F)=  0.252E-04 g(S)=  0.133E-04 ort = 0.487E-04 (trialstep = 0.195E+00)
 search vector abs. value=  0.277E-04
 reached required accuracy - stopping structural energy minimisation
