<?xml version="1.0" encoding="ISO-8859-1"?>
<modeling>
 <generator>
  <i name="program" type="string">vasp </i>
  <i name="version" type="string">5.4.4.18Apr17-6-g9f103f2a35  </i>
  <i name="subversion" type="string">(build Oct 18 2021 20:38:43) complex            parallel </i>
  <i name="platform" type="string">LinuxIFC </i>
  <i name="date" type="string">2024 06 11 </i>
  <i name="time" type="string">17:02:07 </i>
 </generator>
 <incar>
  <i type="string" name="SYSTEM">HECN</i>
  <i type="int" name="ISTART">     0</i>
  <i type="string" name="PREC">normal</i>
  <i type="string" name="ALGO">Fast</i>
  <i type="int" name="ICHARG">     2</i>
  <i type="int" name="NELM">    60</i>
  <i type="int" name="IBRION">     2</i>
  <i name="EDIFF">      0.00001000</i>
  <i name="EDIFFG">     -0.01000000</i>
  <i type="int" name="NSW">   100</i>
  <i type="int" name="ISIF">     3</i>
  <i name="ENCUT">    400.00000000</i>
  <i name="POTIM">      0.50000000</i>
  <i type="logical" name="LREAL"> F  </i>
  <i type="int" name="ISMEAR">     0</i>
  <i name="SIGMA">      0.10000000</i>
  <i type="logical" name="LWAVE"> F  </i>
  <i type="logical" name="LCHARG"> F  </i>
  <v type="int" name="KPOINT_BSE">    -1     0     0     0</v>
  <i type="int" name="NELM">    60</i>
 </incar>
 <structure name="primitive_cell" >
  <crystal>
   <varray name="basis" >
    <v>       8.93249989       0.00000000       0.00000000 </v>
    <v>       0.00575300       9.05559834       0.00000000 </v>
    <v>       0.03210180      -0.01574346       8.93712807 </v>
   </varray>
   <i name="volume">    722.91652451 </i>
   <varray name="rec_basis" >
    <v>       0.11195074      -0.00007112      -0.00040225 </v>
    <v>       0.00000000       0.11042893       0.00019453 </v>
    <v>       0.00000000       0.00000000       0.11189277 </v>
   </varray>
  </crystal>
  <varray name="positions" >
   <v>      -0.00311999      -0.00795003      -0.00075998 </v>
   <v>      -0.25232999      -0.00252000       0.01202000 </v>
   <v>      -0.00162995      -0.25686004       0.00460000 </v>
   <v>      -0.00280000      -0.00228008       0.25899999 </v>
   <v>       0.00281000       0.25024000       0.00130000 </v>
   <v>      -0.01103011       0.00202000      -0.26291001 </v>
   <v>       0.26146999      -0.00015998      -0.00704004 </v>
   <v>      -0.00135002      -0.22426001       0.26102000 </v>
   <v>      -0.25720997      -0.02130006      -0.23549005 </v>
   <v>       0.23780002       0.01082000      -0.25392002 </v>
   <v>      -0.24282000      -0.25897003       0.01100000 </v>
   <v>       0.24762001      -0.25026001      -0.00025994 </v>
   <v>      -0.00485996      -0.25507996      -0.25488003 </v>
   <v>      -0.24281000       0.25603001      -0.00408003 </v>
   <v>       0.25398003      -0.00285005       0.24912000 </v>
   <v>       0.24788999       0.24839000      -0.00342003 </v>
   <v>      -0.00562996       0.23617001       0.26379999 </v>
   <v>      -0.25120996      -0.01212001       0.26967001 </v>
   <v>       0.00201000       0.25541000      -0.26105999 </v>
   <v>       0.24177002      -0.24659003      -0.24981998 </v>
   <v>      -0.24963995      -0.25112000      -0.25243996 </v>
   <v>      -0.24255004       0.24437997      -0.25103001 </v>
   <v>       0.25133999      -0.25041998       0.24910999 </v>
   <v>      -0.24367000      -0.26108997       0.25767000 </v>
   <v>      -0.24686002       0.24616999       0.25492002 </v>
   <v>       0.24982001       0.24942998       0.24825000 </v>
   <v>       0.24900999       0.25315000      -0.25146000 </v>
   <v>      -0.48411003       0.01358000      -0.01924992 </v>
   <v>      -0.00158006      -0.49023002      -0.01386996 </v>
   <v>       0.02362000      -0.00216999       0.49557002 </v>
   <v>      -0.49480995      -0.23869001       0.00855000 </v>
   <v>      -0.49285006      -0.00023001       0.24673000 </v>
   <v>      -0.24160996      -0.49684002       0.00288000 </v>
   <v>      -0.00999997      -0.23784997       0.49746000 </v>
   <v>      -0.00948001       0.48088003       0.24100999 </v>
   <v>       0.24446000      -0.00176004      -0.49712002 </v>
   <v>      -0.26367999       0.00417000      -0.48937000 </v>
   <v>       0.24328000      -0.49927003      -0.00489006 </v>
   <v>      -0.49572003       0.24673000       0.00262000 </v>
   <v>      -0.00796004      -0.49944001      -0.24861998 </v>
   <v>      -0.00195991       0.24229999      -0.49871997 </v>
   <v>      -0.49991002       0.00061000      -0.26528002 </v>
   <v>      -0.26123997      -0.47171998      -0.26185001 </v>
   <v>       0.49950005      -0.24518001      -0.25182996 </v>
   <v>       0.24457999      -0.24951001       0.49983999 </v>
   <v>      -0.24599997      -0.27062001       0.49116997 </v>
   <v>      -0.49520997       0.24631001      -0.25289998 </v>
   <v>       0.24803003      -0.49835000       0.24955001 </v>
   <v>      -0.26448999      -0.48531996       0.26666001 </v>
   <v>      -0.49167000       0.25676999       0.25376001 </v>
   <v>      -0.49620997      -0.26073003       0.25905001 </v>
   <v>      -0.24692999       0.26163001      -0.49466998 </v>
   <v>       0.25272001       0.24823001      -0.49984997 </v>
   <v>       0.25679999       0.49462002      -0.25454998 </v>
   <v>       0.47957999      -0.01691999       0.49717999 </v>
   <v>      -0.49498994       0.49745998      -0.00165997 </v>
   <v>      -0.00572008      -0.49550001       0.49779000 </v>
   <v>      -0.49436004       0.23264998       0.49544997 </v>
   <v>      -0.49424994      -0.25041998       0.49720000 </v>
   <v>      -0.49299998      -0.49666998       0.25878999 </v>
   <v>      -0.49498997      -0.49782002      -0.26087997 </v>
   <v>      -0.25963999      -0.49803000      -0.49932997 </v>
   <v>       0.25841001      -0.49937998      -0.49870999 </v>
   <v>      -0.49461000      -0.47166995       0.49917999 </v>
  </varray>
 </structure>
 <varray name="primitive_index" >
  <v type="int" >        1 </v>
  <v type="int" >       25 </v>
  <v type="int" >       38 </v>
  <v type="int" >       34 </v>
  <v type="int" >       23 </v>
  <v type="int" >       29 </v>
  <v type="int" >       22 </v>
  <v type="int" >       59 </v>
  <v type="int" >       58 </v>
  <v type="int" >       56 </v>
  <v type="int" >        9 </v>
  <v type="int" >       18 </v>
  <v type="int" >       12 </v>
  <v type="int" >       17 </v>
  <v type="int" >        2 </v>
  <v type="int" >       14 </v>
  <v type="int" >        8 </v>
  <v type="int" >       16 </v>
  <v type="int" >       10 </v>
  <v type="int" >       45 </v>
  <v type="int" >       49 </v>
  <v type="int" >       30 </v>
  <v type="int" >       36 </v>
  <v type="int" >       39 </v>
  <v type="int" >       24 </v>
  <v type="int" >       21 </v>
  <v type="int" >       42 </v>
  <v type="int" >       53 </v>
  <v type="int" >       54 </v>
  <v type="int" >       61 </v>
  <v type="int" >       28 </v>
  <v type="int" >       26 </v>
  <v type="int" >       40 </v>
  <v type="int" >       47 </v>
  <v type="int" >       27 </v>
  <v type="int" >       43 </v>
  <v type="int" >       31 </v>
  <v type="int" >       37 </v>
  <v type="int" >       35 </v>
  <v type="int" >       48 </v>
  <v type="int" >       44 </v>
  <v type="int" >       33 </v>
  <v type="int" >       63 </v>
  <v type="int" >        7 </v>
  <v type="int" >       20 </v>
  <v type="int" >       64 </v>
  <v type="int" >        5 </v>
  <v type="int" >        3 </v>
  <v type="int" >       60 </v>
  <v type="int" >       15 </v>
  <v type="int" >       55 </v>
  <v type="int" >       11 </v>
  <v type="int" >       19 </v>
  <v type="int" >       13 </v>
  <v type="int" >       57 </v>
  <v type="int" >        4 </v>
  <v type="int" >        6 </v>
  <v type="int" >       32 </v>
  <v type="int" >       51 </v>
  <v type="int" >       41 </v>
  <v type="int" >       52 </v>
  <v type="int" >       50 </v>
  <v type="int" >       46 </v>
  <v type="int" >       62 </v>
 </varray>
 <kpoints>
  <generation param="Gamma">
   <v type="int" name="divisions">       3        3        3 </v>
   <v name="usershift">      0.00000000       0.00000000       0.00000000 </v>
   <v name="genvec1">      0.33333333      -0.00000000      -0.00000000 </v>
   <v name="genvec2">      0.00000000       0.33333333       0.00000000 </v>
   <v name="genvec3">      0.00000000       0.00000000       0.33333333 </v>
   <v name="shift">      0.00000000       0.00000000       0.00000000 </v>
  </generation>
  <varray name="kpointlist" >
   <v>       0.00000000       0.00000000       0.00000000 </v>
   <v>       0.33333333       0.00000000       0.00000000 </v>
   <v>       0.00000000       0.33333333       0.00000000 </v>
   <v>       0.33333333       0.33333333       0.00000000 </v>
   <v>      -0.33333333       0.33333333       0.00000000 </v>
   <v>       0.00000000       0.00000000       0.33333333 </v>
   <v>       0.33333333       0.00000000       0.33333333 </v>
   <v>      -0.33333333       0.00000000       0.33333333 </v>
   <v>       0.00000000       0.33333333       0.33333333 </v>
   <v>       0.33333333       0.33333333       0.33333333 </v>
   <v>      -0.33333333       0.33333333       0.33333333 </v>
   <v>       0.00000000      -0.33333333       0.33333333 </v>
   <v>       0.33333333      -0.33333333       0.33333333 </v>
   <v>      -0.33333333      -0.33333333       0.33333333 </v>
  </varray>
  <varray name="weights" >
   <v>       0.03703704 </v>
   <v>       0.07407407 </v>
   <v>       0.07407407 </v>
   <v>       0.07407407 </v>
   <v>       0.07407407 </v>
   <v>       0.07407407 </v>
   <v>       0.07407407 </v>
   <v>       0.07407407 </v>
   <v>       0.07407407 </v>
   <v>       0.07407407 </v>
   <v>       0.07407407 </v>
   <v>       0.07407407 </v>
   <v>       0.07407407 </v>
   <v>       0.07407407 </v>
  </varray>
 </kpoints>
 <parameters>
  <separator name="general" >
   <i type="string" name="SYSTEM">HECN</i>
   <i type="logical" name="LCOMPAT"> F  </i>
  </separator>
  <separator name="electronic" >
   <i type="string" name="PREC">normal</i>
   <i name="ENMAX">    400.00000000</i>
   <i name="ENAUG">    644.87300000</i>
   <i name="EDIFF">      0.00001000</i>
   <i type="int" name="IALGO">    68</i>
   <i type="int" name="IWAVPR">    11</i>
   <i type="int" name="NBANDS">   288</i>
   <i name="NELECT">    476.00000000</i>
   <i type="int" name="TURBO">     0</i>
   <i type="int" name="IRESTART">     0</i>
   <i type="int" name="NREBOOT">     0</i>
   <i type="int" name="NMIN">     0</i>
   <i name="EREF">      0.00000000</i>
   <separator name="electronic smearing" >
    <i type="int" name="ISMEAR">     0</i>
    <i name="SIGMA">      0.10000000</i>
    <i name="KSPACING">      0.50000000</i>
    <i type="logical" name="KGAMMA"> T  </i>
   </separator>
   <separator name="electronic projectors" >
    <i type="logical" name="LREAL"> F  </i>
    <v name="ROPT">      0.00000000      0.00000000      0.00000000      0.00000000      0.00000000      0.00000000      0.00000000</v>
    <i type="int" name="LMAXPAW">  -100</i>
    <i type="int" name="LMAXMIX">     2</i>
    <i type="logical" name="NLSPLINE"> F  </i>
   </separator>
   <separator name="electronic startup" >
    <i type="int" name="ISTART">     0</i>
    <i type="int" name="ICHARG">     2</i>
    <i type="int" name="INIWAV">     1</i>
   </separator>
   <separator name="electronic spin" >
    <i type="int" name="ISPIN">     1</i>
    <i type="logical" name="LNONCOLLINEAR"> F  </i>
    <v name="MAGMOM">      1.00000000      1.00000000      1.00000000      1.00000000      1.00000000      1.00000000      1.00000000      1.00000000      1.00000000      1.00000000      1.00000000      1.00000000      1.00000000      1.00000000      1.00000000      1.00000000      1.00000000      1.00000000      1.00000000      1.00000000
      1.00000000      1.00000000      1.00000000      1.00000000      1.00000000      1.00000000      1.00000000      1.00000000      1.00000000      1.00000000      1.00000000      1.00000000      1.00000000      1.00000000      1.00000000      1.00000000      1.00000000      1.00000000      1.00000000      1.00000000
      1.00000000      1.00000000      1.00000000      1.00000000      1.00000000      1.00000000      1.00000000      1.00000000      1.00000000      1.00000000      1.00000000      1.00000000      1.00000000      1.00000000      1.00000000      1.00000000      1.00000000      1.00000000      1.00000000      1.00000000
      1.00000000      1.00000000      1.00000000      1.00000000</v>
    <i name="NUPDOWN">     -1.00000000</i>
    <i type="logical" name="LSORBIT"> F  </i>
    <v name="SAXIS">      0.00000000      0.00000000      1.00000000</v>
    <i type="logical" name="LSPIRAL"> F  </i>
    <v name="QSPIRAL">      0.00000000      0.00000000      0.00000000</v>
    <i type="logical" name="LZEROZ"> F  </i>
   </separator>
   <separator name="electronic exchange-correlation" >
    <i type="logical" name="LASPH"> F  </i>
    <i type="logical" name="LMETAGGA"> F  </i>
   </separator>
   <separator name="electronic convergence" >
    <i type="int" name="NELM">    60</i>
    <i type="int" name="NELMDL">    -5</i>
    <i type="int" name="NELMIN">     2</i>
    <i name="ENINI">    400.00000000</i>
    <separator name="electronic convergence detail" >
     <i type="logical" name="LDIAG"> T  </i>
     <i type="logical" name="LSUBROT"> F  </i>
     <i name="WEIMIN">      0.00100000</i>
     <i name="EBREAK">      0.00000001</i>
     <i name="DEPER">      0.30000000</i>
     <i type="int" name="NRMM">     4</i>
     <i name="TIME">      0.40000000</i>
    </separator>
   </separator>
   <separator name="electronic mixer" >
    <i name="AMIX">      0.40000000</i>
    <i name="BMIX">      1.00000000</i>
    <i name="AMIN">      0.10000000</i>
    <i name="AMIX_MAG">      1.60000000</i>
    <i name="BMIX_MAG">      1.00000000</i>
    <separator name="electronic mixer details" >
     <i type="int" name="IMIX">     4</i>
     <i type="logical" name="MIXFIRST"> F  </i>
     <i type="int" name="MAXMIX">   -45</i>
     <i name="WC">    100.00000000</i>
     <i type="int" name="INIMIX">     1</i>
     <i type="int" name="MIXPRE">     1</i>
     <i type="int" name="MREMOVE">     5</i>
    </separator>
   </separator>
   <separator name="electronic dipolcorrection" >
    <i type="logical" name="LDIPOL"> F  </i>
    <i type="logical" name="LMONO"> F  </i>
    <i type="int" name="IDIPOL">     0</i>
    <i name="EPSILON">      1.00000000</i>
    <v name="DIPOL">   -100.00000000   -100.00000000   -100.00000000</v>
    <i name="EFIELD">      0.00000000</i>
   </separator>
  </separator>
  <separator name="grids" >
   <i type="int" name="NGX">    48</i>
   <i type="int" name="NGY">    48</i>
   <i type="int" name="NGZ">    48</i>
   <i type="int" name="NGXF">    96</i>
   <i type="int" name="NGYF">    96</i>
   <i type="int" name="NGZF">    96</i>
   <i type="logical" name="ADDGRID"> F  </i>
  </separator>
  <separator name="ionic" >
   <i type="int" name="NSW">   100</i>
   <i type="int" name="IBRION">     2</i>
   <i type="int" name="MDALGO">     0</i>
   <i type="int" name="ISIF">     3</i>
   <i name="PSTRESS">      0.00000000</i>
   <i name="EDIFFG">     -0.01000000</i>
   <i type="int" name="NFREE">     1</i>
   <i name="POTIM">      0.50000000</i>
   <i name="SMASS">     -3.00000000</i>
   <i name="SCALEE">      1.00000000</i>
  </separator>
  <separator name="ionic md" >
   <i name="TEBEG">      0.00010000</i>
   <i name="TEEND">      0.00010000</i>
   <i type="int" name="NBLOCK">     1</i>
   <i type="int" name="KBLOCK">   100</i>
   <i type="int" name="NPACO">   256</i>
   <i name="APACO">     16.00000000</i>
  </separator>
  <separator name="symmetry" >
   <i type="int" name="ISYM">     2</i>
   <i name="SYMPREC">      0.00001000</i>
  </separator>
  <separator name="dos" >
   <i type="int" name="LORBIT">     0</i>
   <v name="RWIGS">     -1.00000000     -1.00000000     -1.00000000     -1.00000000     -1.00000000     -1.00000000     -1.00000000</v>
   <i type="int" name="NEDOS">   301</i>
   <i name="EMIN">     10.00000000</i>
   <i name="EMAX">    -10.00000000</i>
   <i name="EFERMI">      0.00000000</i>
  </separator>
  <separator name="writing" >
   <i type="int" name="NWRITE">     2</i>
   <i type="logical" name="LWAVE"> F  </i>
   <i type="logical" name="LDOWNSAMPLE"> F  </i>
   <i type="logical" name="LCHARG"> F  </i>
   <i type="logical" name="LPARD"> F  </i>
   <i type="logical" name="LVTOT"> F  </i>
   <i type="logical" name="LVHAR"> F  </i>
   <i type="logical" name="LELF"> F  </i>
   <i type="logical" name="LOPTICS"> F  </i>
   <v name="STM">      0.00000000      0.00000000      0.00000000      0.00000000      0.00000000      0.00000000      0.00000000</v>
  </separator>
  <separator name="performance" >
   <i type="int" name="NPAR">    24</i>
   <i type="int" name="NSIM">     4</i>
   <i type="int" name="NBLK">    -1</i>
   <i type="logical" name="LPLANE"> T  </i>
   <i type="logical" name="LSCALAPACK"> T  </i>
   <i type="logical" name="LSCAAWARE"> F  </i>
   <i type="logical" name="LSCALU"> F  </i>
   <i type="logical" name="LASYNC"> F  </i>
   <i type="logical" name="LORBITALREAL"> F  </i>
  </separator>
  <separator name="miscellaneous" >
   <i type="int" name="IDIOT">     3</i>
   <i type="int" name="ISPECIAL">     0</i>
   <i type="logical" name="LMUSIC"> F  </i>
   <v name="POMASS">     92.91000000    180.94800000    178.49000000     14.00100000     12.01100000     51.99600000     95.94000000</v>
   <v name="DARWINR">      0.00000000      0.00000000      0.00000000      0.00000000      0.00000000      0.00000000      0.00000000</v>
   <v name="DARWINV">      1.00000000      1.00000000      1.00000000      1.00000000      1.00000000      1.00000000      1.00000000</v>
   <i type="logical" name="LCORR"> T  </i>
  </separator>
  <i type="logical" name="GGA_COMPAT"> T  </i>
  <i type="logical" name="LBERRY"> F  </i>
  <i type="int" name="ICORELEVEL">     0</i>
  <i type="logical" name="LDAU"> F  </i>
  <i type="int" name="I_CONSTRAINED_M">     0</i>
  <separator name="electronic exchange-correlation" >
   <i type="string" name="GGA">--</i>
   <i type="int" name="VOSKOWN">     0</i>
   <i type="logical" name="LHFCALC"> F  </i>
   <i type="string" name="PRECFOCK"></i>
   <i type="logical" name="LSYMGRAD"> F  </i>
   <i type="logical" name="LHFONE"> F  </i>
   <i type="logical" name="LRHFCALC"> F  </i>
   <i type="logical" name="LTHOMAS"> F  </i>
   <i type="logical" name="LMODELHF"> F  </i>
   <i name="ENCUT4O">     -1.00000000</i>
   <i type="int" name="EXXOEP">     0</i>
   <i type="int" name="FOURORBIT">     0</i>
   <i name="AEXX">      0.00000000</i>
   <i name="HFALPHA">      0.00000000</i>
   <i name="MCALPHA">      0.00000000</i>
   <i name="ALDAX">      1.00000000</i>
   <i name="AGGAX">      1.00000000</i>
   <i name="ALDAC">      1.00000000</i>
   <i name="AGGAC">      1.00000000</i>
   <i type="int" name="NKREDX">     1</i>
   <i type="int" name="NKREDY">     1</i>
   <i type="int" name="NKREDZ">     1</i>
   <i type="logical" name="SHIFTRED"> F  </i>
   <i type="logical" name="ODDONLY"> F  </i>
   <i type="logical" name="EVENONLY"> F  </i>
   <i type="int" name="LMAXFOCK">     0</i>
   <i type="int" name="NMAXFOCKAE">     0</i>
   <i type="logical" name="LFOCKAEDFT"> F  </i>
   <i name="HFSCREEN">      0.00000000</i>
   <i name="HFSCREENC">      0.00000000</i>
   <i type="int" name="NBANDSGWLOW">     0</i>
  </separator>
  <separator name="vdW DFT" >
   <i type="logical" name="LUSE_VDW"> F  </i>
   <i name="Zab_VDW">     -0.84910000</i>
   <i name="PARAM1">      0.12340000</i>
   <i name="PARAM2">      1.00000000</i>
   <i name="PARAM3">      0.00000000</i>
  </separator>
  <separator name="model GW" >
   <i type="int" name="MODEL_GW">     0</i>
   <i name="MODEL_EPS0">      6.77734242</i>
   <i name="MODEL_ALPHA">      1.00000000</i>
  </separator>
  <separator name="linear response parameters" >
   <i type="logical" name="LEPSILON"> F  </i>
   <i type="logical" name="LRPA"> F  </i>
   <i type="logical" name="LNABLA"> F  </i>
   <i type="logical" name="LVEL"> F  </i>
   <i type="int" name="KINTER">     0</i>
   <i name="CSHIFT">      0.10000000</i>
   <i name="OMEGAMAX">     -1.00000000</i>
   <i name="DEG_THRESHOLD">      0.00200000</i>
   <i name="RTIME">     -0.10000000</i>
   <i name="WPLASMAI">      0.00000000</i>
   <v name="DFIELD">      0.00000000      0.00000000      0.00000000</v>
   <v name="WPLASMA">      0.00000000      0.00000000      0.00000000      0.00000000      0.00000000      0.00000000      0.00000000      0.00000000      0.00000000</v>
  </separator>
  <separator name="orbital magnetization" >
   <i type="logical" name="NUCIND"> F  </i>
   <v name="MAGPOS">      0.00000000      0.00000000      0.00000000</v>
   <i type="logical" name="LNICSALL"> T  </i>
   <i type="logical" name="ORBITALMAG"> F  </i>
   <i type="logical" name="LMAGBLOCH"> F  </i>
   <i type="logical" name="LCHIMAG"> F  </i>
   <i type="logical" name="LGAUGE"> T  </i>
   <i type="int" name="MAGATOM">     0</i>
   <v name="MAGDIPOL">      0.00000000      0.00000000      0.00000000</v>
   <v name="AVECCONST">      0.00000000      0.00000000      0.00000000</v>
  </separator>
  <separator name="response functions" >
   <i type="logical" name="LADDER"> F  </i>
   <i type="logical" name="LRPAFORCE"> F  </i>
   <i type="logical" name="LFXC"> F  </i>
   <i type="logical" name="LHARTREE"> T  </i>
   <i type="int" name="IBSE">     0</i>
   <v type="int" name="KPOINT">    -1     0     0     0</v>
   <i type="logical" name="LTCTE"> F  </i>
   <i type="logical" name="LTETE"> F  </i>
   <i type="logical" name="LTRIPLET"> F  </i>
   <i type="logical" name="LFXCEPS"> F  </i>
   <i type="logical" name="LFXHEG"> F  </i>
   <i type="int" name="NATURALO">     2</i>
   <i type="logical" name="L2ORDER"> F  </i>
   <i type="logical" name="LMP2LT"> F  </i>
   <i type="logical" name="LUSEW"> F  </i>
   <i name="ENCUTGW">     -2.00000000</i>
   <i name="ENCUTGWSOFT">     -2.00000000</i>
   <i name="ENCUTLF">     -1.00000000</i>
   <i type="int" name="LMAXMP2">    -1</i>
   <i name="SCISSOR">      0.00000000</i>
   <i type="int" name="NOMEGA">     0</i>
   <i type="int" name="NOMEGAR">     0</i>
   <i type="int" name="NBANDSGW">    -1</i>
   <i type="int" name="NBANDSO">    -1</i>
   <i type="int" name="NBANDSV">    -1</i>
   <i type="int" name="NELM">    60</i>
   <i type="int" name="NELMHF">     1</i>
   <i type="int" name="DIM">     3</i>
   <i type="int" name="ANTIRES">     0</i>
   <i name="OMEGAMAX">    -30.00000000</i>
   <i name="OMEGAMIN">    -30.00000000</i>
   <i name="OMEGATL">   -200.00000000</i>
   <i type="int" name="OMEGAGRID">   140</i>
   <i name="CSHIFT">     -0.10000000</i>
   <i type="logical" name="SELFENERGY"> F  </i>
   <i type="logical" name="LSPECTRAL"> F  </i>
   <i type="logical" name="LSPECTRALGW"> F  </i>
   <i type="logical" name="LSINGLES"> F  </i>
   <i type="logical" name="LFERMIGW"> F  </i>
   <i type="logical" name="ODDONLYGW"> F  </i>
   <i type="logical" name="EVENONLYGW"> F  </i>
   <i type="int" name="NKREDLFX">     1</i>
   <i type="int" name="NKREDLFY">     1</i>
   <i type="int" name="NKREDLFZ">     1</i>
   <i type="int" name="MAXMEM">  2800</i>
   <i type="int" name="TELESCOPE">     0</i>
   <i type="int" name="TAUPAR">     1</i>
   <i type="int" name="OMEGAPAR">    -1</i>
   <i name="LAMBDA">      1.00000000</i>
  </separator>
  <separator name="External order field" >
   <i name="OFIELD_KAPPA">      0.00000000</i>
   <v name="OFIELD_K">      0.00000000      0.00000000      0.00000000</v>
   <i name="OFIELD_Q6_NEAR">      0.00000000</i>
   <i name="OFIELD_Q6_FAR">      0.00000000</i>
   <i name="OFIELD_A">      0.00000000</i>
  </separator>
 </parameters>
 <atominfo>
  <atoms>      64 </atoms>
  <types>       7 </types>
  <array name="atoms" >
   <dimension dim="1">ion</dimension>
   <field type="string">element</field>
   <field type="int">atomtype</field>
   <set>
    <rc><c>Nb</c><c>   1</c></rc>
    <rc><c>Nb</c><c>   1</c></rc>
    <rc><c>Nb</c><c>   1</c></rc>
    <rc><c>Nb</c><c>   1</c></rc>
    <rc><c>Nb</c><c>   1</c></rc>
    <rc><c>Nb</c><c>   1</c></rc>
    <rc><c>Nb</c><c>   1</c></rc>
    <rc><c>Ta</c><c>   2</c></rc>
    <rc><c>Ta</c><c>   2</c></rc>
    <rc><c>Ta</c><c>   2</c></rc>
    <rc><c>Ta</c><c>   2</c></rc>
    <rc><c>Ta</c><c>   2</c></rc>
    <rc><c>Ta</c><c>   2</c></rc>
    <rc><c>Hf</c><c>   3</c></rc>
    <rc><c>Hf</c><c>   3</c></rc>
    <rc><c>Hf</c><c>   3</c></rc>
    <rc><c>Hf</c><c>   3</c></rc>
    <rc><c>Hf</c><c>   3</c></rc>
    <rc><c>Hf</c><c>   3</c></rc>
    <rc><c>Hf</c><c>   3</c></rc>
    <rc><c>N </c><c>   4</c></rc>
    <rc><c>N </c><c>   4</c></rc>
    <rc><c>N </c><c>   4</c></rc>
    <rc><c>N </c><c>   4</c></rc>
    <rc><c>N </c><c>   4</c></rc>
    <rc><c>N </c><c>   4</c></rc>
    <rc><c>N </c><c>   4</c></rc>
    <rc><c>N </c><c>   4</c></rc>
    <rc><c>N </c><c>   4</c></rc>
    <rc><c>N </c><c>   4</c></rc>
    <rc><c>N </c><c>   4</c></rc>
    <rc><c>N </c><c>   4</c></rc>
    <rc><c>N </c><c>   4</c></rc>
    <rc><c>C </c><c>   5</c></rc>
    <rc><c>C </c><c>   5</c></rc>
    <rc><c>C </c><c>   5</c></rc>
    <rc><c>C </c><c>   5</c></rc>
    <rc><c>C </c><c>   5</c></rc>
    <rc><c>C </c><c>   5</c></rc>
    <rc><c>C </c><c>   5</c></rc>
    <rc><c>C </c><c>   5</c></rc>
    <rc><c>C </c><c>   5</c></rc>
    <rc><c>C </c><c>   5</c></rc>
    <rc><c>C </c><c>   5</c></rc>
    <rc><c>C </c><c>   5</c></rc>
    <rc><c>C </c><c>   5</c></rc>
    <rc><c>C </c><c>   5</c></rc>
    <rc><c>C </c><c>   5</c></rc>
    <rc><c>C </c><c>   5</c></rc>
    <rc><c>C </c><c>   5</c></rc>
    <rc><c>C </c><c>   5</c></rc>
    <rc><c>C </c><c>   5</c></rc>
    <rc><c>Cr</c><c>   6</c></rc>
    <rc><c>Cr</c><c>   6</c></rc>
    <rc><c>Cr</c><c>   6</c></rc>
    <rc><c>Cr</c><c>   6</c></rc>
    <rc><c>Cr</c><c>   6</c></rc>
    <rc><c>Cr</c><c>   6</c></rc>
    <rc><c>Mo</c><c>   7</c></rc>
    <rc><c>Mo</c><c>   7</c></rc>
    <rc><c>Mo</c><c>   7</c></rc>
    <rc><c>Mo</c><c>   7</c></rc>
    <rc><c>Mo</c><c>   7</c></rc>
    <rc><c>Mo</c><c>   7</c></rc>
   </set>
  </array>
  <array name="atomtypes" >
   <dimension dim="1">type</dimension>
   <field type="int">atomspertype</field>
   <field type="string">element</field>
   <field>mass</field>
   <field>valence</field>
   <field type="string">pseudopotential</field>
   <set>
    <rc><c>   7</c><c>Nb</c><c>     92.91000000</c><c>     13.00000000</c><c> PAW_PBE Nb_sv 17Jan2003                </c></rc>
    <rc><c>   6</c><c>Ta</c><c>    180.94800000</c><c>     11.00000000</c><c> PAW_PBE Ta_pv 07Sep2000                </c></rc>
    <rc><c>   7</c><c>Hf</c><c>    178.49000000</c><c>     10.00000000</c><c> PAW_PBE Hf_pv 06Sep2000                </c></rc>
    <rc><c>  13</c><c>N </c><c>     14.00100000</c><c>      5.00000000</c><c> PAW_PBE N 08Apr2002                    </c></rc>
    <rc><c>  19</c><c>C </c><c>     12.01100000</c><c>      4.00000000</c><c> PAW_PBE C 08Apr2002                    </c></rc>
    <rc><c>   6</c><c>Cr</c><c>     51.99600000</c><c>     12.00000000</c><c> PAW_PBE Cr_pv 07Sep2000                </c></rc>
    <rc><c>   6</c><c>Mo</c><c>     95.94000000</c><c>      6.00000000</c><c> PAW_PBE Mo 08Apr2002                   </c></rc>
   </set>
  </array>
 </atominfo>
 <structure name="initialpos" >
  <crystal>
   <varray name="basis" >
    <v>       8.93249989       0.00000000       0.00000000 </v>
    <v>       0.00575300       9.05559834       0.00000000 </v>
    <v>       0.03210180      -0.01574346       8.93712807 </v>
   </varray>
   <i name="volume">    722.91652451 </i>
   <varray name="rec_basis" >
    <v>       0.11195074      -0.00007112      -0.00040225 </v>
    <v>       0.00000000       0.11042893       0.00019453 </v>
    <v>       0.00000000       0.00000000       0.11189277 </v>
   </varray>
  </crystal>
  <varray name="positions" >
   <v>       0.99688001       0.99204997       0.99924002 </v>
   <v>       0.25398003       0.99714995       0.24912000 </v>
   <v>       0.24803003       0.50165000       0.24955001 </v>
   <v>       0.50501006       0.49745998       0.99834003 </v>
   <v>       0.50479003       0.24631001       0.74710002 </v>
   <v>       0.99427992       0.50449999       0.49779000 </v>
   <v>       0.49950005       0.75481999       0.74817004 </v>
   <v>       0.99437004       0.23617001       0.26379999 </v>
   <v>       0.75718000       0.74102998       0.01100000 </v>
   <v>       0.00201000       0.25541000       0.73894001 </v>
   <v>       0.75307001       0.26163001       0.50533002 </v>
   <v>       0.99514004       0.74492004       0.74511997 </v>
   <v>       0.25679999       0.49462002       0.74545002 </v>
   <v>       0.24788999       0.24839000       0.99657997 </v>
   <v>       0.50833000       0.25676999       0.25376001 </v>
   <v>       0.74879004       0.98787999       0.26967001 </v>
   <v>       0.75719000       0.25603001       0.99591997 </v>
   <v>       0.24762001       0.74973999       0.99974006 </v>
   <v>       0.25272001       0.24823001       0.50015003 </v>
   <v>       0.24457999       0.75048999       0.49983999 </v>
   <v>       0.24982001       0.24942998       0.24825000 </v>
   <v>       0.26146999       0.99984002       0.99295996 </v>
   <v>       0.00281000       0.25024000       0.00130000 </v>
   <v>       0.75313998       0.24617000       0.25492002 </v>
   <v>       0.74767001       0.99748000       0.01202000 </v>
   <v>       0.50714994       0.99977000       0.24673000 </v>
   <v>       0.99051999       0.48088002       0.24100998 </v>
   <v>       0.50519005       0.76130999       0.00855000 </v>
   <v>       0.98896989       0.00202000       0.73708999 </v>
   <v>       0.75744996       0.24437997       0.74896999 </v>
   <v>       0.73632001       0.00417000       0.51063000 </v>
   <v>       0.50563996       0.23264999       0.49544997 </v>
   <v>       0.50008998       0.00061000       0.73471998 </v>
   <v>       0.99720000       0.99771992       0.25899999 </v>
   <v>       0.50427997       0.24673000       0.00262000 </v>
   <v>       0.25133999       0.74958002       0.24910999 </v>
   <v>       0.24328000       0.50072997       0.99510994 </v>
   <v>       0.99837005       0.74313996       0.00460000 </v>
   <v>       0.75633000       0.73891003       0.25767000 </v>
   <v>       0.75839004       0.50315998       0.00288000 </v>
   <v>       0.50700002       0.50333002       0.25878999 </v>
   <v>       0.24900999       0.25315000       0.74854000 </v>
   <v>       0.24446000       0.99823996       0.50287998 </v>
   <v>       0.99804009       0.24229999       0.50128003 </v>
   <v>       0.24177002       0.75340997       0.75018002 </v>
   <v>       0.25841001       0.50062002       0.50129001 </v>
   <v>       0.99000004       0.76215003       0.49746000 </v>
   <v>       0.99203996       0.50055999       0.75138002 </v>
   <v>       0.75036005       0.74888000       0.74756004 </v>
   <v>       0.74036002       0.50197000       0.50067003 </v>
   <v>       0.50575006       0.74958002       0.49720000 </v>
   <v>       0.50501003       0.50217998       0.73912003 </v>
   <v>       0.51588997       0.01358000       0.98075008 </v>
   <v>       0.99841994       0.50976998       0.98613004 </v>
   <v>       0.50379003       0.73926997       0.25905001 </v>
   <v>       0.23780002       0.01082000       0.74607998 </v>
   <v>       0.47957999       0.98308000       0.49717999 </v>
   <v>       0.74279003       0.97869994       0.76450995 </v>
   <v>       0.99864998       0.77573999       0.26102000 </v>
   <v>       0.73551001       0.51468004       0.26666001 </v>
   <v>       0.02362000       0.99783001       0.49557002 </v>
   <v>       0.50539000       0.52833005       0.49917999 </v>
   <v>       0.73876003       0.52828003       0.73814999 </v>
   <v>       0.75400003       0.72937999       0.49116997 </v>
  </varray>
 </structure>
 <calculation>
  <scstep>
   <time name="dav">   18.32   18.42</time>
   <time name="total">   18.36   18.46</time>
   <energy>
    <i name="alphaZ">   3610.21284491 </i>
    <i name="ewald"> -35940.35512143 </i>
    <i name="hartreedc">  -6852.97113943 </i>
    <i name="XCdc">   1176.34761850 </i>
    <i name="pawpsdc">  24933.89726378 </i>
    <i name="pawaedc"> -24513.83468319 </i>
    <i name="eentropy">     -0.07538027 </i>
    <i name="bandstr">   2715.82333021 </i>
    <i name="atom">  40602.21858413 </i>
    <i name="e_fr_energy">   5731.26331721 </i>
    <i name="e_wo_entrp">   5731.33869748 </i>
    <i name="e_0_energy">   5731.30100735 </i>
   </energy>
  </scstep>
  <scstep>
   <time name="dav">   20.23   20.76</time>
   <time name="total">   20.23   20.77</time>
   <energy>
    <i name="e_fr_energy">    172.10608543 </i>
    <i name="e_wo_entrp">    172.21519131 </i>
    <i name="e_0_energy">    172.16063837 </i>
   </energy>
  </scstep>
  <scstep>
   <time name="dav">   29.51   29.59</time>
   <time name="total">   29.51   29.59</time>
   <energy>
    <i name="e_fr_energy">   -690.75856516 </i>
    <i name="e_wo_entrp">   -690.63916617 </i>
    <i name="e_0_energy">   -690.69886567 </i>
   </energy>
  </scstep>
  <scstep>
   <time name="dav">   29.42   29.51</time>
   <time name="total">   29.42   29.51</time>
   <energy>
    <i name="e_fr_energy">   -776.59408788 </i>
    <i name="e_wo_entrp">   -776.48358849 </i>
    <i name="e_0_energy">   -776.53883819 </i>
   </energy>
  </scstep>
  <scstep>
   <time name="dav">   34.94   35.04</time>
   <time name="total">   35.19   35.30</time>
   <energy>
    <i name="e_fr_energy">   -789.62207400 </i>
    <i name="e_wo_entrp">   -789.50357469 </i>
    <i name="e_0_energy">   -789.56282435 </i>
   </energy>
  </scstep>
  <scstep>
   <time name="diag">    1.58    1.58</time>
   <time name="diis">   17.86   17.87</time>
   <time name="orth">    0.37    0.37</time>
   <time name="total">   20.08   20.10</time>
   <energy>
    <i name="e_fr_energy">   -967.22985107 </i>
    <i name="e_wo_entrp">   -967.05361732 </i>
    <i name="e_0_energy">   -967.14173420 </i>
   </energy>
  </scstep>
  <scstep>
   <time name="diag">    1.56    1.60</time>
   <time name="diis">   18.75   19.29</time>
   <time name="orth">    0.36    0.37</time>
   <time name="total">   20.95   21.55</time>
   <energy>
    <i name="e_fr_energy">   -655.99866901 </i>
    <i name="e_wo_entrp">   -655.88159830 </i>
    <i name="e_0_energy">   -655.94013365 </i>
   </energy>
  </scstep>
  <scstep>
   <time name="diag">    1.59    1.61</time>
   <time name="diis">   20.52   20.56</time>
   <time name="orth">    0.37    0.37</time>
   <time name="total">   22.76   22.83</time>
   <energy>
    <i name="e_fr_energy">   -665.54282477 </i>
    <i name="e_wo_entrp">   -665.41194038 </i>
    <i name="e_0_energy">   -665.47738257 </i>
   </energy>
  </scstep>
  <scstep>
   <time name="diag">    1.56    1.60</time>
   <time name="diis">   19.60   20.18</time>
   <time name="orth">    0.36    0.36</time>
   <time name="total">   21.80   22.43</time>
   <energy>
    <i name="e_fr_energy">   -657.85344530 </i>
    <i name="e_wo_entrp">   -657.66670667 </i>
    <i name="e_0_energy">   -657.76007598 </i>
   </energy>
  </scstep>
  <scstep>
   <time name="diag">    1.58    1.58</time>
   <time name="diis">   20.09   20.13</time>
   <time name="orth">    0.36    0.36</time>
   <time name="total">   22.31   22.36</time>
   <energy>
    <i name="e_fr_energy">   -654.30454447 </i>
    <i name="e_wo_entrp">   -654.09634634 </i>
    <i name="e_0_energy">   -654.20044540 </i>
   </energy>
  </scstep>
  <scstep>
   <time name="diag">    1.59    1.59</time>
   <time name="diis">   17.18   17.21</time>
   <time name="orth">    0.36    0.37</time>
   <time name="total">   19.42   19.45</time>
   <energy>
    <i name="e_fr_energy">   -656.34958473 </i>
    <i name="e_wo_entrp">   -656.16511722 </i>
    <i name="e_0_energy">   -656.25735097 </i>
   </energy>
  </scstep>
  <scstep>
   <time name="diag">    1.61    1.61</time>
   <time name="diis">   18.47   18.49</time>
   <time name="orth">    0.36    0.36</time>
   <time name="total">   20.71   20.74</time>
   <energy>
    <i name="e_fr_energy">   -653.19954503 </i>
    <i name="e_wo_entrp">   -652.98301924 </i>
    <i name="e_0_energy">   -653.09128214 </i>
   </energy>
  </scstep>
  <scstep>
   <time name="diag">    1.61    1.62</time>
   <time name="diis">   19.44   19.46</time>
   <time name="orth">    0.36    0.36</time>
   <time name="total">   21.69   21.73</time>
   <energy>
    <i name="e_fr_energy">   -653.66993602 </i>
    <i name="e_wo_entrp">   -653.47107299 </i>
    <i name="e_0_energy">   -653.57050450 </i>
   </energy>
  </scstep>
  <scstep>
   <time name="diag">    1.59    1.59</time>
   <time name="diis">   19.57   19.58</time>
   <time name="orth">    0.36    0.36</time>
   <time name="total">   21.80   21.81</time>
   <energy>
    <i name="e_fr_energy">   -653.28201063 </i>
    <i name="e_wo_entrp">   -653.09489915 </i>
    <i name="e_0_energy">   -653.18845489 </i>
   </energy>
  </scstep>
  <scstep>
   <time name="diag">    1.60    1.61</time>
   <time name="diis">   18.33   18.37</time>
   <time name="orth">    0.36    0.36</time>
   <time name="total">   20.58   20.62</time>
   <energy>
    <i name="e_fr_energy">   -652.89206563 </i>
    <i name="e_wo_entrp">   -652.68967907 </i>
    <i name="e_0_energy">   -652.79087235 </i>
   </energy>
  </scstep>
  <scstep>
   <time name="diag">    1.58    1.58</time>
   <time name="diis">   19.27   19.33</time>
   <time name="orth">    0.36    0.37</time>
   <time name="total">   21.49   21.56</time>
   <energy>
    <i name="e_fr_energy">   -652.47533472 </i>
    <i name="e_wo_entrp">   -652.25952602 </i>
    <i name="e_0_energy">   -652.36743037 </i>
   </energy>
  </scstep>
  <scstep>
   <time name="diag">    1.58    1.59</time>
   <time name="diis">   21.00   21.12</time>
   <time name="orth">    0.36    0.36</time>
   <time name="total">   23.23   23.35</time>
   <energy>
    <i name="e_fr_energy">   -652.46285889 </i>
    <i name="e_wo_entrp">   -652.24306887 </i>
    <i name="e_0_energy">   -652.35296388 </i>
   </energy>
  </scstep>
  <scstep>
   <time name="diag">    1.56    1.60</time>
   <time name="diis">   16.73   17.23</time>
   <time name="orth">    0.36    0.36</time>
   <time name="total">   18.93   19.48</time>
   <energy>
    <i name="e_fr_energy">   -652.53378955 </i>
    <i name="e_wo_entrp">   -652.31422997 </i>
    <i name="e_0_energy">   -652.42400976 </i>
   </energy>
  </scstep>
  <scstep>
   <time name="diag">    1.57    1.61</time>
   <time name="diis">   20.14   20.74</time>
   <time name="orth">    0.36    0.36</time>
   <time name="total">   22.34   23.00</time>
   <energy>
    <i name="e_fr_energy">   -652.50493761 </i>
    <i name="e_wo_entrp">   -652.28771203 </i>
    <i name="e_0_energy">   -652.39632482 </i>
   </energy>
  </scstep>
  <scstep>
   <time name="diag">    1.59    1.59</time>
   <time name="diis">   18.75   18.76</time>
   <time name="orth">    0.36    0.36</time>
   <time name="total">   20.98   21.00</time>
   <energy>
    <i name="e_fr_energy">   -652.47959136 </i>
    <i name="e_wo_entrp">   -652.26043697 </i>
    <i name="e_0_energy">   -652.37001416 </i>
   </energy>
  </scstep>
  <scstep>
   <time name="diag">    1.58    1.58</time>
   <time name="diis">   19.60   19.67</time>
   <time name="orth">    0.39    0.40</time>
   <time name="total">   21.85   21.94</time>
   <energy>
    <i name="e_fr_energy">   -652.47847709 </i>
    <i name="e_wo_entrp">   -652.25872833 </i>
    <i name="e_0_energy">   -652.36860271 </i>
   </energy>
  </scstep>
  <scstep>
   <time name="diag">    1.61    1.62</time>
   <time name="diis">   18.40   18.45</time>
   <time name="orth">    0.36    0.36</time>
   <time name="total">   20.66   20.71</time>
   <energy>
    <i name="e_fr_energy">   -652.48117157 </i>
    <i name="e_wo_entrp">   -652.26166775 </i>
    <i name="e_0_energy">   -652.37141966 </i>
   </energy>
  </scstep>
  <scstep>
   <time name="diag">    1.56    1.59</time>
   <time name="diis">   18.01   18.55</time>
   <time name="orth">    0.36    0.36</time>
   <time name="total">   20.21   20.79</time>
   <energy>
    <i name="e_fr_energy">   -652.48216173 </i>
    <i name="e_wo_entrp">   -652.26284548 </i>
    <i name="e_0_energy">   -652.37250361 </i>
   </energy>
  </scstep>
  <scstep>
   <time name="diag">    1.55    1.59</time>
   <time name="diis">   16.48   17.00</time>
   <time name="orth">    0.36    0.36</time>
   <time name="total">   18.68   19.25</time>
   <energy>
    <i name="e_fr_energy">   -652.48357250 </i>
    <i name="e_wo_entrp">   -652.26423280 </i>
    <i name="e_0_energy">   -652.37390265 </i>
   </energy>
  </scstep>
  <scstep>
   <time name="diag">    1.57    1.60</time>
   <time name="diis">   16.90   17.41</time>
   <time name="orth">    0.36    0.36</time>
   <time name="total">   19.11   19.66</time>
   <energy>
    <i name="e_fr_energy">   -652.48385980 </i>
    <i name="e_wo_entrp">   -652.26445061 </i>
    <i name="e_0_energy">   -652.37415520 </i>
   </energy>
  </scstep>
  <scstep>
   <time name="diag">    1.58    1.58</time>
   <time name="diis">   14.53   14.54</time>
   <time name="orth">    0.36    0.36</time>
   <time name="total">   16.75   16.77</time>
   <energy>
    <i name="e_fr_energy">   -652.48414410 </i>
    <i name="e_wo_entrp">   -652.26471520 </i>
    <i name="e_0_energy">   -652.37442965 </i>
   </energy>
  </scstep>
  <scstep>
   <time name="diag">    1.58    1.58</time>
   <time name="diis">   13.51   13.55</time>
   <time name="orth">    0.36    0.36</time>
   <time name="total">   15.73   15.79</time>
   <energy>
    <i name="e_fr_energy">   -652.48423814 </i>
    <i name="e_wo_entrp">   -652.26481626 </i>
    <i name="e_0_energy">   -652.37452720 </i>
   </energy>
  </scstep>
  <scstep>
   <time name="diag">    1.56    1.59</time>
   <time name="diis">   12.31   12.39</time>
   <time name="orth">    0.37    0.37</time>
   <time name="total">   14.51   14.63</time>
   <energy>
    <i name="e_fr_energy">   -652.48432545 </i>
    <i name="e_wo_entrp">   -652.26490440 </i>
    <i name="e_0_energy">   -652.37461493 </i>
   </energy>
  </scstep>
  <scstep>
   <time name="diag">    1.56    1.59</time>
   <time name="diis">   11.52   11.85</time>
   <time name="orth">    0.36    0.36</time>
   <time name="total">   13.71   14.10</time>
   <energy>
    <i name="e_fr_energy">   -652.48436588 </i>
    <i name="e_wo_entrp">   -652.26494854 </i>
    <i name="e_0_energy">   -652.37465721 </i>
   </energy>
  </scstep>
  <scstep>
   <time name="diag">    1.55    1.59</time>
   <time name="diis">   11.43   11.78</time>
   <time name="orth">    0.36    0.36</time>
   <time name="total">   13.63   14.01</time>
   <energy>
    <i name="e_fr_energy">   -652.48439113 </i>
    <i name="e_wo_entrp">   -652.26496022 </i>
    <i name="e_0_energy">   -652.37467567 </i>
   </energy>
  </scstep>
  <scstep>
   <time name="diag">    1.55    1.58</time>
   <time name="diis">   10.98   11.29</time>
   <time name="orth">    0.37    0.37</time>
   <time name="total">   13.17   13.52</time>
   <energy>
    <i name="e_fr_energy">   -652.48441046 </i>
    <i name="e_wo_entrp">   -652.26497788 </i>
    <i name="e_0_energy">   -652.37469417 </i>
   </energy>
  </scstep>
  <scstep>
   <time name="diag">    1.57    1.59</time>
   <time name="diis">   11.05   11.06</time>
   <time name="orth">    0.36    0.36</time>
   <time name="total">   13.02   13.05</time>
   <energy>
    <i name="alphaZ">   3610.21284491 </i>
    <i name="ewald"> -35940.35512143 </i>
    <i name="hartreedc">  -6484.12823858 </i>
    <i name="XCdc">   1175.25579005 </i>
    <i name="pawpsdc">  26224.21055010 </i>
    <i name="pawaedc"> -25845.44603343 </i>
    <i name="eentropy">     -0.21943800 </i>
    <i name="bandstr">  -3994.23335585 </i>
    <i name="atom">  40602.21858413 </i>
    <i name="e_fr_energy">   -652.48441810 </i>
    <i name="e_wo_entrp">   -652.26498011 </i>
    <i name="e_0_energy">   -652.37469911 </i>
   </energy>
  </scstep>
  <structure>
   <crystal>
    <varray name="basis" >
     <v>       8.93249989       0.00000000       0.00000000 </v>
     <v>       0.00575300       9.05559834       0.00000000 </v>
     <v>       0.03210180      -0.01574346       8.93712807 </v>
    </varray>
    <i name="volume">    722.91652451 </i>
    <varray name="rec_basis" >
     <v>       0.11195074      -0.00007112      -0.00040225 </v>
     <v>       0.00000000       0.11042893       0.00019453 </v>
     <v>       0.00000000       0.00000000       0.11189277 </v>
    </varray>
   </crystal>
   <varray name="positions" >
    <v>       0.99688001       0.99204997       0.99924002 </v>
    <v>       0.25398003       0.99714995       0.24912000 </v>
    <v>       0.24803003       0.50165000       0.24955001 </v>
    <v>       0.50501006       0.49745998       0.99834003 </v>
    <v>       0.50479003       0.24631001       0.74710002 </v>
    <v>       0.99427992       0.50449999       0.49779000 </v>
    <v>       0.49950005       0.75481999       0.74817004 </v>
    <v>       0.99437004       0.23617001       0.26379999 </v>
    <v>       0.75718000       0.74102998       0.01100000 </v>
    <v>       0.00201000       0.25541000       0.73894001 </v>
    <v>       0.75307001       0.26163001       0.50533002 </v>
    <v>       0.99514004       0.74492004       0.74511997 </v>
    <v>       0.25679999       0.49462002       0.74545002 </v>
    <v>       0.24788999       0.24839000       0.99657997 </v>
    <v>       0.50833000       0.25676999       0.25376001 </v>
    <v>       0.74879004       0.98787999       0.26967001 </v>
    <v>       0.75719000       0.25603001       0.99591997 </v>
    <v>       0.24762001       0.74973999       0.99974006 </v>
    <v>       0.25272001       0.24823001       0.50015003 </v>
    <v>       0.24457999       0.75048999       0.49983999 </v>
    <v>       0.24982001       0.24942998       0.24825000 </v>
    <v>       0.26146999       0.99984002       0.99295996 </v>
    <v>       0.00281000       0.25024000       0.00130000 </v>
    <v>       0.75313998       0.24617000       0.25492002 </v>
    <v>       0.74767001       0.99748000       0.01202000 </v>
    <v>       0.50714994       0.99977000       0.24673000 </v>
    <v>       0.99051999       0.48088002       0.24100998 </v>
    <v>       0.50519005       0.76130999       0.00855000 </v>
    <v>       0.98896989       0.00202000       0.73708999 </v>
    <v>       0.75744996       0.24437997       0.74896999 </v>
    <v>       0.73632001       0.00417000       0.51063000 </v>
    <v>       0.50563996       0.23264999       0.49544997 </v>
    <v>       0.50008998       0.00061000       0.73471998 </v>
    <v>       0.99720000       0.99771992       0.25899999 </v>
    <v>       0.50427997       0.24673000       0.00262000 </v>
    <v>       0.25133999       0.74958002       0.24910999 </v>
    <v>       0.24328000       0.50072997       0.99510994 </v>
    <v>       0.99837005       0.74313996       0.00460000 </v>
    <v>       0.75633000       0.73891003       0.25767000 </v>
    <v>       0.75839004       0.50315998       0.00288000 </v>
    <v>       0.50700002       0.50333002       0.25878999 </v>
    <v>       0.24900999       0.25315000       0.74854000 </v>
    <v>       0.24446000       0.99823996       0.50287998 </v>
    <v>       0.99804009       0.24229999       0.50128003 </v>
    <v>       0.24177002       0.75340997       0.75018002 </v>
    <v>       0.25841001       0.50062002       0.50129001 </v>
    <v>       0.99000004       0.76215003       0.49746000 </v>
    <v>       0.99203996       0.50055999       0.75138002 </v>
    <v>       0.75036005       0.74888000       0.74756004 </v>
    <v>       0.74036002       0.50197000       0.50067003 </v>
    <v>       0.50575006       0.74958002       0.49720000 </v>
    <v>       0.50501003       0.50217998       0.73912003 </v>
    <v>       0.51588997       0.01358000       0.98075008 </v>
    <v>       0.99841994       0.50976998       0.98613004 </v>
    <v>       0.50379003       0.73926997       0.25905001 </v>
    <v>       0.23780002       0.01082000       0.74607998 </v>
    <v>       0.47957999       0.98308000       0.49717999 </v>
    <v>       0.74279003       0.97869994       0.76450995 </v>
    <v>       0.99864998       0.77573999       0.26102000 </v>
    <v>       0.73551001       0.51468004       0.26666001 </v>
    <v>       0.02362000       0.99783001       0.49557002 </v>
    <v>       0.50539000       0.52833005       0.49917999 </v>
    <v>       0.73876003       0.52828003       0.73814999 </v>
    <v>       0.75400003       0.72937999       0.49116997 </v>
   </varray>
  </structure>
  <varray name="forces" >
   <v>       0.11493336      -0.45144207      -0.35998492 </v>
   <v>      -0.03535425      -1.03243720      -0.15325211 </v>
   <v>       0.53502289       1.00719351      -0.42092305 </v>
   <v>      -0.17628227      -0.48473694      -0.10387162 </v>
   <v>      -0.53316732      -0.73900874       0.68446717 </v>
   <v>       0.23845706      -0.45611344       0.66651437 </v>
   <v>      -0.04395116       0.94539084      -0.03545044 </v>
   <v>       0.48247220       0.19339228      -0.44473040 </v>
   <v>      -0.54731002       0.61068039      -0.29723120 </v>
   <v>       0.30712557      -0.40927274       0.22862549 </v>
   <v>      -0.45665918      -0.81259404       0.59446314 </v>
   <v>       0.53604403       0.50113252       0.47376247 </v>
   <v>      -0.27456913       0.50335740       0.72464817 </v>
   <v>       0.35059189      -0.29740758       0.05832016 </v>
   <v>      -0.40935577      -1.08073003      -0.21630959 </v>
   <v>      -1.38240721       0.34856623      -0.24423403 </v>
   <v>      -0.36488310      -0.41076570      -0.50754858 </v>
   <v>       0.79027497       0.47091008       0.10092033 </v>
   <v>       0.59016835      -0.00065706      -0.05827323 </v>
   <v>       0.69296040      -0.02132503      -0.17246331 </v>
   <v>       0.04810034       0.06076263       0.10806410 </v>
   <v>      -0.43711575       0.09362468       0.20070548 </v>
   <v>      -0.09807814      -0.38787730       0.13120147 </v>
   <v>       0.05260674      -0.20452250      -0.03327004 </v>
   <v>       0.07299784      -0.21798070      -0.83427969 </v>
   <v>      -0.86450232       0.05431173       0.33349270 </v>
   <v>       0.79147471      -0.24348958       0.61334419 </v>
   <v>       0.10385639      -0.40028485      -0.48694083 </v>
   <v>      -0.17564262       0.05677537       1.14391091 </v>
   <v>      -0.37261659      -0.13894932       0.01262933 </v>
   <v>       0.05778721       0.23873289      -0.15275460 </v>
   <v>      -0.09392990      -0.00899894       0.41719547 </v>
   <v>       0.57482772      -0.04082759       0.55122173 </v>
   <v>       0.51942634       0.92788031      -1.29702969 </v>
   <v>      -0.02876814       0.23624997      -0.67080578 </v>
   <v>       0.40501951      -0.13092710       0.10892862 </v>
   <v>       0.38397540      -0.16605268       0.37897707 </v>
   <v>      -0.12492292       0.04377319      -0.24017473 </v>
   <v>      -0.85846368       0.70236286      -1.04787587 </v>
   <v>      -0.11396741       0.05493688       0.03343423 </v>
   <v>      -1.61509831       0.69588646      -1.08244742 </v>
   <v>       0.31587469      -0.58711826       0.01795536 </v>
   <v>       1.94305062      -0.04353340       0.47924417 </v>
   <v>       0.02411947       0.93380226      -0.10827992 </v>
   <v>       0.58677691       0.00531940       0.00967444 </v>
   <v>      -0.88405146      -0.09150508      -0.54943428 </v>
   <v>       0.70194531      -1.05104738       0.81714314 </v>
   <v>       0.44339417       0.03724166      -0.01852971 </v>
   <v>      -0.47206691       1.78207538       0.48009990 </v>
   <v>       1.32847468      -0.99031671       0.37373232 </v>
   <v>      -0.54517451       1.54498678      -0.32028186 </v>
   <v>      -0.76078217      -0.33351235       1.07489576 </v>
   <v>       0.30730221       0.59087936      -0.76183847 </v>
   <v>       0.07448278       1.02167608      -0.83937600 </v>
   <v>       0.21974700      -0.75957019       0.07259472 </v>
   <v>      -0.22000917       0.07935384       0.24730796 </v>
   <v>      -0.51591102      -0.23378660       0.28536953 </v>
   <v>      -0.65898713      -0.83222425       0.38947716 </v>
   <v>       0.53077496      -0.10795584      -0.89500555 </v>
   <v>      -0.01175343      -0.32371445      -1.40137957 </v>
   <v>      -0.55998991       0.45230710       0.36852637 </v>
   <v>      -0.83735995      -0.46320791      -0.25060558 </v>
   <v>       0.20379446      -1.13136458       1.30878164 </v>
   <v>       0.14527069       0.89169606       0.51495296 </v>
  </varray>
  <varray name="stress" >
   <v>    -106.10186457       0.45152266      -1.59966961 </v>
   <v>       0.45152265    -124.53645448       1.86898625 </v>
   <v>      -1.59967018       1.86898624    -101.53563893 </v>
  </varray>
  <energy>
   <i name="e_fr_energy">   -652.48441810 </i>
   <i name="e_wo_entrp">   -652.37469911 </i>
   <i name="e_0_energy">     -0.21943800 </i>
  </energy>
  <time name="totalsc">  693.36  700.49</time>
 </calculation>
 <calculation>
  <scstep>
   <time name="dav">   25.52   25.57</time>
   <time name="total">   25.80   25.85</time>
   <energy>
    <i name="alphaZ">   4050.93004158 </i>
    <i name="ewald"> -37142.80811799 </i>
    <i name="hartreedc">  -6938.71315594 </i>
    <i name="XCdc">   1242.07574171 </i>
    <i name="pawpsdc">  26224.20874301 </i>
    <i name="pawaedc"> -25845.44427316 </i>
    <i name="eentropy">     -0.11222028 </i>
    <i name="bandstr">  -2881.55311048 </i>
    <i name="atom">  40602.21858413 </i>
    <i name="e_fr_energy">   -689.19776743 </i>
    <i name="e_wo_entrp">   -689.08554715 </i>
    <i name="e_0_energy">   -689.14165729 </i>
   </energy>
  </scstep>
  <scstep>
   <time name="diag">    1.57    1.57</time>
   <time name="diis">   15.52   15.54</time>
   <time name="orth">    0.36    0.36</time>
   <time name="total">   17.73   17.75</time>
   <energy>
    <i name="e_fr_energy">   -880.09224682 </i>
    <i name="e_wo_entrp">   -879.99185843 </i>
    <i name="e_0_energy">   -880.04205263 </i>
   </energy>
  </scstep>
  <scstep>
   <time name="diag">    1.56    1.60</time>
   <time name="diis">   16.29   16.37</time>
   <time name="orth">    0.37    0.37</time>
   <time name="total">   18.50   18.62</time>
   <energy>
    <i name="e_fr_energy">   -656.81961629 </i>
    <i name="e_wo_entrp">   -656.69796371 </i>
    <i name="e_0_energy">   -656.75879000 </i>
   </energy>
  </scstep>
  <scstep>
   <time name="diag">    1.59    1.60</time>
   <time name="diis">   17.12   17.15</time>
   <time name="orth">    0.36    0.36</time>
   <time name="total">   19.35   19.38</time>
   <energy>
    <i name="e_fr_energy">   -665.09743777 </i>
    <i name="e_wo_entrp">   -664.97660588 </i>
    <i name="e_0_energy">   -665.03702182 </i>
   </energy>
  </scstep>
  <scstep>
   <time name="diag">    1.58    1.58</time>
   <time name="diis">   15.92   16.00</time>
   <time name="orth">    0.36    0.36</time>
   <time name="total">   18.14   18.22</time>
   <energy>
    <i name="e_fr_energy">   -653.67802431 </i>
    <i name="e_wo_entrp">   -653.50804581 </i>
    <i name="e_0_energy">   -653.59303506 </i>
   </energy>
  </scstep>
  <scstep>
   <time name="diag">    1.56    1.59</time>
   <time name="diis">   16.74   17.22</time>
   <time name="orth">    0.36    0.36</time>
   <time name="total">   18.93   19.45</time>
   <energy>
    <i name="e_fr_energy">   -655.92030768 </i>
    <i name="e_wo_entrp">   -655.79620155 </i>
    <i name="e_0_energy">   -655.85825462 </i>
   </energy>
  </scstep>
  <scstep>
   <time name="diag">    1.58    1.58</time>
   <time name="diis">   16.58   16.63</time>
   <time name="orth">    0.38    0.39</time>
   <time name="total">   18.84   18.90</time>
   <energy>
    <i name="e_fr_energy">   -652.75370303 </i>
    <i name="e_wo_entrp">   -652.60757244 </i>
    <i name="e_0_energy">   -652.68063773 </i>
   </energy>
  </scstep>
  <scstep>
   <time name="diag">    1.59    1.59</time>
   <time name="diis">   17.55   17.57</time>
   <time name="orth">    0.36    0.36</time>
   <time name="total">   19.78   19.81</time>
   <energy>
    <i name="e_fr_energy">   -652.34225667 </i>
    <i name="e_wo_entrp">   -652.17844676 </i>
    <i name="e_0_energy">   -652.26035171 </i>
   </energy>
  </scstep>
  <scstep>
   <time name="diag">    1.56    1.60</time>
   <time name="diis">   18.33   18.86</time>
   <time name="orth">    0.36    0.36</time>
   <time name="total">   20.53   21.11</time>
   <energy>
    <i name="e_fr_energy">   -652.33382718 </i>
    <i name="e_wo_entrp">   -652.17471997 </i>
    <i name="e_0_energy">   -652.25427357 </i>
   </energy>
  </scstep>
  <scstep>
   <time name="diag">    1.56    1.59</time>
   <time name="diis">   21.67   21.86</time>
   <time name="orth">    0.36    0.36</time>
   <time name="total">   23.87   24.10</time>
   <energy>
    <i name="e_fr_energy">   -652.20400410 </i>
    <i name="e_wo_entrp">   -652.03877845 </i>
    <i name="e_0_energy">   -652.12139128 </i>
   </energy>
  </scstep>
  <scstep>
   <time name="diag">    1.59    1.59</time>
   <time name="diis">   19.87   19.92</time>
   <time name="orth">    0.36    0.36</time>
   <time name="total">   22.10   22.16</time>
   <energy>
    <i name="e_fr_energy">   -652.28434381 </i>
    <i name="e_wo_entrp">   -652.11990004 </i>
    <i name="e_0_energy">   -652.20212192 </i>
   </energy>
  </scstep>
  <scstep>
   <time name="diag">    1.57    1.60</time>
   <time name="diis">   19.60   19.63</time>
   <time name="orth">    0.36    0.36</time>
   <time name="total">   21.81   21.87</time>
   <energy>
    <i name="e_fr_energy">   -652.21273617 </i>
    <i name="e_wo_entrp">   -652.04667159 </i>
    <i name="e_0_energy">   -652.12970388 </i>
   </energy>
  </scstep>
  <scstep>
   <time name="diag">    1.58    1.58</time>
   <time name="diis">   22.12   22.19</time>
   <time name="orth">    0.36    0.36</time>
   <time name="total">   24.34   24.41</time>
   <energy>
    <i name="e_fr_energy">   -652.22882181 </i>
    <i name="e_wo_entrp">   -652.06195422 </i>
    <i name="e_0_energy">   -652.14538801 </i>
   </energy>
  </scstep>
  <scstep>
   <time name="diag">    1.62    1.62</time>
   <time name="diis">   20.86   20.87</time>
   <time name="orth">    0.36    0.36</time>
   <time name="total">   23.13   23.14</time>
   <energy>
    <i name="e_fr_energy">   -652.23042782 </i>
    <i name="e_wo_entrp">   -652.06369103 </i>
    <i name="e_0_energy">   -652.14705943 </i>
   </energy>
  </scstep>
  <scstep>
   <time name="diag">    1.56    1.59</time>
   <time name="diis">   21.63   22.31</time>
   <time name="orth">    0.36    0.36</time>
   <time name="total">   23.83   24.55</time>
   <energy>
    <i name="e_fr_energy">   -652.23287020 </i>
    <i name="e_wo_entrp">   -652.06626018 </i>
    <i name="e_0_energy">   -652.14956519 </i>
   </energy>
  </scstep>
  <scstep>
   <time name="diag">    1.57    1.57</time>
   <time name="diis">   21.85   22.08</time>
   <time name="orth">    0.36    0.36</time>
   <time name="total">   24.06   24.30</time>
   <energy>
    <i name="e_fr_energy">   -652.23505541 </i>
    <i name="e_wo_entrp">   -652.06849857 </i>
    <i name="e_0_energy">   -652.15177699 </i>
   </energy>
  </scstep>
  <scstep>
   <time name="diag">    1.56    1.59</time>
   <time name="diis">   21.47   22.10</time>
   <time name="orth">    0.37    0.38</time>
   <time name="total">   23.70   24.38</time>
   <energy>
    <i name="e_fr_energy">   -652.23604254 </i>
    <i name="e_wo_entrp">   -652.06942692 </i>
    <i name="e_0_energy">   -652.15273473 </i>
   </energy>
  </scstep>
  <scstep>
   <time name="diag">    1.60    1.60</time>
   <time name="diis">   21.23   21.26</time>
   <time name="orth">    0.36    0.36</time>
   <time name="total">   23.47   23.51</time>
   <energy>
    <i name="e_fr_energy">   -652.23708124 </i>
    <i name="e_wo_entrp">   -652.07050499 </i>
    <i name="e_0_energy">   -652.15379312 </i>
   </energy>
  </scstep>
  <scstep>
   <time name="diag">    1.62    1.64</time>
   <time name="diis">   19.65   19.67</time>
   <time name="orth">    0.36    0.36</time>
   <time name="total">   21.91   21.95</time>
   <energy>
    <i name="e_fr_energy">   -652.23759203 </i>
    <i name="e_wo_entrp">   -652.07099728 </i>
    <i name="e_0_energy">   -652.15429465 </i>
   </energy>
  </scstep>
  <scstep>
   <time name="diag">    1.57    1.57</time>
   <time name="diis">   20.23   20.24</time>
   <time name="orth">    0.36    0.36</time>
   <time name="total">   22.45   22.46</time>
   <energy>
    <i name="e_fr_energy">   -652.23798698 </i>
    <i name="e_wo_entrp">   -652.07138461 </i>
    <i name="e_0_energy">   -652.15468579 </i>
   </energy>
  </scstep>
  <scstep>
   <time name="diag">    1.60    1.60</time>
   <time name="diis">   19.76   19.80</time>
   <time name="orth">    0.36    0.36</time>
   <time name="total">   22.01   22.05</time>
   <energy>
    <i name="e_fr_energy">   -652.23818530 </i>
    <i name="e_wo_entrp">   -652.07158208 </i>
    <i name="e_0_energy">   -652.15488369 </i>
   </energy>
  </scstep>
  <scstep>
   <time name="diag">    1.57    1.58</time>
   <time name="diis">   18.87   18.89</time>
   <time name="orth">    0.36    0.36</time>
   <time name="total">   21.09   21.11</time>
   <energy>
    <i name="e_fr_energy">   -652.23830258 </i>
    <i name="e_wo_entrp">   -652.07170257 </i>
    <i name="e_0_energy">   -652.15500258 </i>
   </energy>
  </scstep>
  <scstep>
   <time name="diag">    1.56    1.59</time>
   <time name="diis">   16.50   17.03</time>
   <time name="orth">    0.37    0.38</time>
   <time name="total">   18.71   19.28</time>
   <energy>
    <i name="e_fr_energy">   -652.23836474 </i>
    <i name="e_wo_entrp">   -652.07176188 </i>
    <i name="e_0_energy">   -652.15506331 </i>
   </energy>
  </scstep>
  <scstep>
   <time name="diag">    1.59    1.59</time>
   <time name="diis">   17.71   17.76</time>
   <time name="orth">    0.36    0.36</time>
   <time name="total">   19.94   19.99</time>
   <energy>
    <i name="e_fr_energy">   -652.23841826 </i>
    <i name="e_wo_entrp">   -652.07181211 </i>
    <i name="e_0_energy">   -652.15511519 </i>
   </energy>
  </scstep>
  <scstep>
   <time name="diag">    1.58    1.58</time>
   <time name="diis">   16.98   17.08</time>
   <time name="orth">    0.36    0.36</time>
   <time name="total">   19.20   19.31</time>
   <energy>
    <i name="e_fr_energy">   -652.23844632 </i>
    <i name="e_wo_entrp">   -652.07184075 </i>
    <i name="e_0_energy">   -652.15514353 </i>
   </energy>
  </scstep>
  <scstep>
   <time name="diag">    1.56    1.57</time>
   <time name="diis">   15.21   15.26</time>
   <time name="orth">    0.36    0.36</time>
   <time name="total">   17.41   17.46</time>
   <energy>
    <i name="e_fr_energy">   -652.23846199 </i>
    <i name="e_wo_entrp">   -652.07185571 </i>
    <i name="e_0_energy">   -652.15515885 </i>
   </energy>
  </scstep>
  <scstep>
   <time name="diag">    1.59    1.59</time>
   <time name="diis">   14.43   14.45</time>
   <time name="orth">    0.36    0.36</time>
   <time name="total">   16.66   16.69</time>
   <energy>
    <i name="e_fr_energy">   -652.23847321 </i>
    <i name="e_wo_entrp">   -652.07186793 </i>
    <i name="e_0_energy">   -652.15517057 </i>
   </energy>
  </scstep>
  <scstep>
   <time name="diag">    1.58    1.62</time>
   <time name="diis">   12.82   13.18</time>
   <time name="orth">    0.36    0.36</time>
   <time name="total">   14.79   15.20</time>
   <energy>
    <i name="alphaZ">   4050.93004158 </i>
    <i name="ewald"> -37142.80811799 </i>
    <i name="hartreedc">  -6286.22625044 </i>
    <i name="XCdc">   1205.37895177 </i>
    <i name="pawpsdc">  27456.91554974 </i>
    <i name="pawaedc"> -27080.32973712 </i>
    <i name="eentropy">     -0.16660653 </i>
    <i name="bandstr">  -3458.15089272 </i>
    <i name="atom">  40602.21858413 </i>
    <i name="e_fr_energy">   -652.23847757 </i>
    <i name="e_wo_entrp">   -652.07187104 </i>
    <i name="e_0_energy">   -652.15517430 </i>
   </energy>
  </scstep>
  <structure>
   <crystal>
    <varray name="basis" >
     <v>       8.61015200       0.00137177      -0.00485995 </v>
     <v>       0.00693606       8.67203116       0.00575328 </v>
     <v>       0.02607845      -0.00939058       8.62846553 </v>
    </varray>
    <i name="volume">    644.26748815 </i>
    <varray name="rec_basis" >
     <v>       0.11614178      -0.00009266      -0.00035112 </v>
     <v>      -0.00001830       0.11531317       0.00012555 </v>
     <v>       0.00006543      -0.00007694       0.11589518 </v>
    </varray>
   </crystal>
   <varray name="positions" >
    <v>       0.99750928       0.98964158       0.99729682 </v>
    <v>       0.25379560       0.99164833       0.24829274 </v>
    <v>       0.25092429       0.50701176       0.24727786 </v>
    <v>       0.50406168       0.49487662       0.99777933 </v>
    <v>       0.50189975       0.24237945       0.75079477 </v>
    <v>       0.99555641       0.50207635       0.50138785 </v>
    <v>       0.49926013       0.75985612       0.74797868 </v>
    <v>       0.99698374       0.23719611       0.26139933 </v>
    <v>       0.75422776       0.74428051       0.00939554 </v>
    <v>       0.00366569       0.25323179       0.74017413 </v>
    <v>       0.75059494       0.25730659       0.50853894 </v>
    <v>       0.99802420       0.74759421       0.74767734 </v>
    <v>       0.25530131       0.49730840       0.74936168 </v>
    <v>       0.24978336       0.24680614       0.99689478 </v>
    <v>       0.50612706       0.25101050       0.25259237 </v>
    <v>       0.74132747       0.98973465       0.26835163 </v>
    <v>       0.75523059       0.25383694       0.99318022 </v>
    <v>       0.25188455       0.75224966       0.00028482 </v>
    <v>       0.25590852       0.24822596       0.49983547 </v>
    <v>       0.24832595       0.75037476       0.49890903 </v>
    <v>       0.25007749       0.24975470       0.24883333 </v>
    <v>       0.25910500       0.00034068       0.99404337 </v>
    <v>       0.00227908       0.24817486       0.00200823 </v>
    <v>       0.75342545       0.24508011       0.25474043 </v>
    <v>       0.74808120       0.99631090       0.00751655 </v>
    <v>       0.50247428       0.00006246       0.24853020 </v>
    <v>       0.99478353       0.47958862       0.24432082 </v>
    <v>       0.50576178       0.75917295       0.00592149 </v>
    <v>       0.98799888       0.00233320       0.74326483 </v>
    <v>       0.75543776       0.24363986       0.74903816 </v>
    <v>       0.73663425       0.00544039       0.50980543 </v>
    <v>       0.50512460       0.23260596       0.49770199 </v>
    <v>       0.50318395       0.00039767       0.73769548 </v>
    <v>       0.00002730       0.00265092       0.25199862 </v>
    <v>       0.50413680       0.24798230      -0.00100101 </v>
    <v>       0.25352575       0.74888354       0.24969799 </v>
    <v>       0.24534699       0.49984890       0.99715566 </v>
    <v>       0.99769987       0.74337090       0.00330354 </v>
    <v>       0.75171153       0.74264195       0.25201356 </v>
    <v>       0.75777369       0.50345296       0.00306048 </v>
    <v>       0.49829581       0.50702711       0.25294693 </v>
    <v>       0.25071763       0.25002237       0.74863693 </v>
    <v>       0.25494488       0.99801254       0.50546694 </v>
    <v>       0.99816925       0.24727370       0.50069554 </v>
    <v>       0.24493888       0.75343840       0.75023224 </v>
    <v>       0.25364640       0.50012738       0.49832416 </v>
    <v>       0.99377885       0.75655836       0.50187094 </v>
    <v>       0.99443488       0.50075822       0.75127999 </v>
    <v>       0.74779508       0.75837831       0.75015162 </v>
    <v>       0.74753099       0.49669771       0.50268744 </v>
    <v>       0.50280659       0.75780775       0.49547112 </v>
    <v>       0.50088148       0.50041332       0.74492232 </v>
    <v>       0.51756240       0.01672069       0.97663767 </v>
    <v>       0.99883499       0.51520497       0.98159908 </v>
    <v>       0.50497804       0.73522412       0.25944188 </v>
    <v>       0.23660672       0.01124507       0.74741495 </v>
    <v>       0.47678893       0.98183721       0.49872042 </v>
    <v>       0.73922627       0.97427001       0.76661235 </v>
    <v>       0.00153433       0.77515647       0.25618875 </v>
    <v>       0.73547484       0.51294233       0.25909536 </v>
    <v>       0.02058690       0.00024308       0.49755932 </v>
    <v>       0.50087403       0.52586001       0.49782722 </v>
    <v>       0.73983917       0.52226509       0.74521480 </v>
    <v>       0.75477156       0.73413523       0.49394969 </v>
   </varray>
  </structure>
  <varray name="forces" >
   <v>       0.43772960       0.15153967      -0.54065612 </v>
   <v>      -0.03613492      -0.02519679       0.13365435 </v>
   <v>      -0.07488342       0.17828373      -0.34722575 </v>
   <v>      -0.19303529      -0.06408188       0.00955642 </v>
   <v>      -0.46974033      -0.37457032       0.09120584 </v>
   <v>       0.72907889      -0.28729735       0.26894541 </v>
   <v>      -0.16190373       0.28628356      -0.18039827 </v>
   <v>       0.51127871       0.79364076      -0.89591419 </v>
   <v>      -0.69150312       0.78553262      -0.56145605 </v>
   <v>       0.37705537      -0.78142430       0.92613409 </v>
   <v>      -0.29920055      -0.99719362       0.13045854 </v>
   <v>       0.14999979       0.59182255       0.65392545 </v>
   <v>      -0.65864437       0.24369593       0.23898434 </v>
   <v>      -0.07898808      -0.23827044       0.31820699 </v>
   <v>      -0.59247715      -0.10172344      -0.30646166 </v>
   <v>       0.17928647       0.32631978      -0.73397279 </v>
   <v>       0.04975058      -0.51945520       0.09671240 </v>
   <v>       0.64461284       0.28273395      -0.02308712 </v>
   <v>       0.08763576       0.06147401      -0.11757078 </v>
   <v>      -0.08081930       0.04848843       0.15565779 </v>
   <v>       0.09959832      -0.00076093       0.00206517 </v>
   <v>       0.03596530      -0.01485150      -0.07040697 </v>
   <v>      -0.01432903       0.11755646       0.13081505 </v>
   <v>      -0.18469194       0.00134924      -0.18194772 </v>
   <v>      -0.26884227       0.02257006      -0.68616329 </v>
   <v>      -0.76809511      -0.32372229      -0.11492582 </v>
   <v>       0.30903870       0.85212106       0.13295063 </v>
   <v>      -0.09192676       0.11039287      -0.25597215 </v>
   <v>      -0.18635139       0.01437889       0.55897563 </v>
   <v>      -0.30406814       0.03880840       0.03980551 </v>
   <v>       0.43590128      -0.23889618       0.58673130 </v>
   <v>      -0.01724337       0.39213685       0.30867558 </v>
   <v>       0.33444014       0.00055962       0.51443943 </v>
   <v>      -0.29203773      -0.11215275      -0.53465010 </v>
   <v>      -0.15397040      -0.10507618       0.04633217 </v>
   <v>       0.74961188      -0.02686858      -0.11860429 </v>
   <v>      -0.16576673       0.03004440       0.30183334 </v>
   <v>       0.49689248      -0.24375074       0.11860519 </v>
   <v>      -0.63829625       0.43511302       0.04157049 </v>
   <v>       0.40617280      -0.32020020       0.17752746 </v>
   <v>      -0.54738907       0.10379000      -0.46003197 </v>
   <v>       0.28673469      -0.49687098       0.06525151 </v>
   <v>       0.54136093       0.12078850       0.67646712 </v>
   <v>       0.32065042       0.51871727      -0.08183496 </v>
   <v>       0.53960287       0.51935091       0.04316422 </v>
   <v>      -0.43278330      -0.07550725      -0.09494554 </v>
   <v>       0.49349935      -0.43593488      -0.10539991 </v>
   <v>       0.34254576       0.01616693       0.28329146 </v>
   <v>       0.08366133       0.13206214      -0.21450613 </v>
   <v>       0.00536608       0.08442125      -0.16564007 </v>
   <v>       0.18057043       0.92076624      -0.53817681 </v>
   <v>      -0.14682255      -0.08178039       0.23427426 </v>
   <v>      -0.06941140       0.07741089      -0.42893150 </v>
   <v>       0.03866723       0.36815441      -0.55206374 </v>
   <v>      -0.11370226      -0.26078221      -0.03967174 </v>
   <v>      -0.38108128      -0.45410928       0.21083313 </v>
   <v>       0.35716368       0.39832313       0.13801635 </v>
   <v>      -0.63349731       0.70945233       0.54477183 </v>
   <v>       0.09708852      -1.32867490      -0.66350609 </v>
   <v>      -0.11908030      -0.92394923      -1.16014929 </v>
   <v>      -0.49300525       0.53484620       0.19471462 </v>
   <v>      -0.03106630      -1.30129086      -0.31311147 </v>
   <v>       0.46716065      -0.72227957       1.57814340 </v>
   <v>      -0.39733242       0.58757620       0.53468580 </v>
  </varray>
  <varray name="stress" >
   <v>     260.65465789      -0.94336488       0.82072046 </v>
   <v>      -0.94336338     262.77426121      -0.24265568 </v>
   <v>       0.82072045      -0.24265461     254.29158760 </v>
  </varray>
  <energy>
   <i name="e_fr_energy">   -652.23847757 </i>
   <i name="e_wo_entrp">   -652.15517430 </i>
   <i name="e_0_energy">     -0.16660653 </i>
  </energy>
  <time name="totalsc">  622.64  627.68</time>
 </calculation>
 <calculation>
  <scstep>
   <time name="dav">   25.01   25.70</time>
   <time name="total">   25.29   25.99</time>
   <energy>
    <i name="alphaZ">   3822.22067446 </i>
    <i name="ewald"> -36543.49131409 </i>
    <i name="hartreedc">  -6053.76044167 </i>
    <i name="XCdc">   1172.13909867 </i>
    <i name="pawpsdc">  27457.01826368 </i>
    <i name="pawaedc"> -27080.36394008 </i>
    <i name="eentropy">     -0.15627426 </i>
    <i name="bandstr">  -4043.12160723 </i>
    <i name="atom">  40602.21858413 </i>
    <i name="e_fr_energy">   -667.29695640 </i>
    <i name="e_wo_entrp">   -667.14068213 </i>
    <i name="e_0_energy">   -667.21881926 </i>
   </energy>
  </scstep>
  <scstep>
   <time name="diag">    1.55    1.58</time>
   <time name="diis">   18.45   18.78</time>
   <time name="orth">    0.36    0.36</time>
   <time name="total">   20.63   21.00</time>
   <energy>
    <i name="e_fr_energy">   -829.79525359 </i>
    <i name="e_wo_entrp">   -829.67207803 </i>
    <i name="e_0_energy">   -829.73366581 </i>
   </energy>
  </scstep>
  <scstep>
   <time name="diag">    1.57    1.60</time>
   <time name="diis">   16.10   16.57</time>
   <time name="orth">    0.36    0.36</time>
   <time name="total">   18.30   18.82</time>
   <energy>
    <i name="e_fr_energy">   -671.39040314 </i>
    <i name="e_wo_entrp">   -671.24288962 </i>
    <i name="e_0_energy">   -671.31664638 </i>
   </energy>
  </scstep>
  <scstep>
   <time name="diag">    1.58    1.58</time>
   <time name="diis">   16.70   16.72</time>
   <time name="orth">    0.36    0.36</time>
   <time name="total">   18.92   18.94</time>
   <energy>
    <i name="e_fr_energy">   -657.83441637 </i>
    <i name="e_wo_entrp">   -657.67017993 </i>
    <i name="e_0_energy">   -657.75229815 </i>
   </energy>
  </scstep>
  <scstep>
   <time name="diag">    1.57    1.58</time>
   <time name="diis">   15.83   15.84</time>
   <time name="orth">    0.36    0.36</time>
   <time name="total">   18.03   18.06</time>
   <energy>
    <i name="e_fr_energy">   -661.12717508 </i>
    <i name="e_wo_entrp">   -660.93898384 </i>
    <i name="e_0_energy">   -661.03307946 </i>
   </energy>
  </scstep>
  <scstep>
   <time name="diag">    1.57    1.60</time>
   <time name="diis">   16.61   17.09</time>
   <time name="orth">    0.36    0.36</time>
   <time name="total">   18.81   19.34</time>
   <energy>
    <i name="e_fr_energy">   -659.13392287 </i>
    <i name="e_wo_entrp">   -658.96947120 </i>
    <i name="e_0_energy">   -659.05169703 </i>
   </energy>
  </scstep>
  <scstep>
   <time name="diag">    1.57    1.58</time>
   <time name="diis">   15.74   15.75</time>
   <time name="orth">    0.36    0.36</time>
   <time name="total">   17.96   17.98</time>
   <energy>
    <i name="e_fr_energy">   -655.25267301 </i>
    <i name="e_wo_entrp">   -655.05626892 </i>
    <i name="e_0_energy">   -655.15447096 </i>
   </energy>
  </scstep>
  <scstep>
   <time name="diag">    1.56    1.60</time>
   <time name="diis">   17.57   17.76</time>
   <time name="orth">    0.37    0.37</time>
   <time name="total">   19.78   20.00</time>
   <energy>
    <i name="e_fr_energy">   -655.44149898 </i>
    <i name="e_wo_entrp">   -655.26124362 </i>
    <i name="e_0_energy">   -655.35137130 </i>
   </energy>
  </scstep>
  <scstep>
   <time name="diag">    1.62    1.62</time>
   <time name="diis">   18.72   18.73</time>
   <time name="orth">    0.36    0.36</time>
   <time name="total">   20.97   20.99</time>
   <energy>
    <i name="e_fr_energy">   -655.30093543 </i>
    <i name="e_wo_entrp">   -655.11972501 </i>
    <i name="e_0_energy">   -655.21033022 </i>
   </energy>
  </scstep>
  <scstep>
   <time name="diag">    1.57    1.57</time>
   <time name="diis">   18.02   18.07</time>
   <time name="orth">    0.36    0.36</time>
   <time name="total">   20.23   20.28</time>
   <energy>
    <i name="e_fr_energy">   -654.85768485 </i>
    <i name="e_wo_entrp">   -654.67286292 </i>
    <i name="e_0_energy">   -654.76527388 </i>
   </energy>
  </scstep>
  <scstep>
   <time name="diag">    1.56    1.58</time>
   <time name="diis">   19.93   19.99</time>
   <time name="orth">    0.37    0.37</time>
   <time name="total">   22.15   22.24</time>
   <energy>
    <i name="e_fr_energy">   -654.82498570 </i>
    <i name="e_wo_entrp">   -654.63249075 </i>
    <i name="e_0_energy">   -654.72873822 </i>
   </energy>
  </scstep>
  <scstep>
   <time name="diag">    1.62    1.63</time>
   <time name="diis">   18.79   18.83</time>
   <time name="orth">    0.36    0.36</time>
   <time name="total">   21.05   21.11</time>
   <energy>
    <i name="e_fr_energy">   -654.78842734 </i>
    <i name="e_wo_entrp">   -654.59639841 </i>
    <i name="e_0_energy">   -654.69241287 </i>
   </energy>
  </scstep>
  <scstep>
   <time name="diag">    1.57    1.61</time>
   <time name="diis">   20.89   21.17</time>
   <time name="orth">    0.36    0.36</time>
   <time name="total">   23.10   23.42</time>
   <energy>
    <i name="e_fr_energy">   -654.78667125 </i>
    <i name="e_wo_entrp">   -654.59363417 </i>
    <i name="e_0_energy">   -654.69015271 </i>
   </energy>
  </scstep>
  <scstep>
   <time name="diag">    1.55    1.59</time>
   <time name="diis">   21.07   21.70</time>
   <time name="orth">    0.36    0.36</time>
   <time name="total">   23.26   23.93</time>
   <energy>
    <i name="e_fr_energy">   -654.78494631 </i>
    <i name="e_wo_entrp">   -654.59157918 </i>
    <i name="e_0_energy">   -654.68826275 </i>
   </energy>
  </scstep>
  <scstep>
   <time name="diag">    1.55    1.58</time>
   <time name="diis">   21.17   21.80</time>
   <time name="orth">    0.36    0.36</time>
   <time name="total">   23.36   24.03</time>
   <energy>
    <i name="e_fr_energy">   -654.78644191 </i>
    <i name="e_wo_entrp">   -654.59353820 </i>
    <i name="e_0_energy">   -654.68999005 </i>
   </energy>
  </scstep>
  <scstep>
   <time name="diag">    1.57    1.57</time>
   <time name="diis">   21.97   21.99</time>
   <time name="orth">    0.36    0.36</time>
[...]
      </set>
     </set>
    </set>
   </array>
  </eigenvalues>
  <separator name="orbital magnetization" >
   <v name="MAGDIPOLOUT">      0.00000000      0.00000000      0.00000000</v>
  </separator>
  <dos>
   <i name="efermi">      8.96651698 </i>
   <total>
    <array>
     <dimension dim="1">gridpoints</dimension>
     <dimension dim="2">spin</dimension>
     <field>energy</field>
     <field>total</field>
     <field>integrated</field>
     <set>
      <set comment="spin 1">
       <r>   -49.9477     0.0000     0.0000 </r>
       <r>   -49.7331     0.0000     0.0000 </r>
       <r>   -49.5186     0.0000     0.0000 </r>
       <r>   -49.3040     0.0000     0.0000 </r>
       <r>   -49.0895     0.0000     0.0000 </r>
       <r>   -48.8749     0.0000     0.0000 </r>
       <r>   -48.6604     0.0000     0.0000 </r>
       <r>   -48.4458     0.0000     0.0000 </r>
       <r>   -48.2313     0.0000     0.0000 </r>
       <r>   -48.0167     0.0000     0.0000 </r>
       <r>   -47.8022     0.0000     0.0000 </r>
       <r>   -47.5876     0.0000     0.0000 </r>
       <r>   -47.3731     0.0000     0.0000 </r>
       <r>   -47.1585     0.2508     0.0538 </r>
       <r>   -46.9440    11.0798     2.4310 </r>
       <r>   -46.7294    37.6707    10.5133 </r>
       <r>   -46.5149    16.2114    13.9915 </r>
       <r>   -46.3003     0.0397    14.0000 </r>
       <r>   -46.0857     0.0000    14.0000 </r>
       <r>   -45.8712     0.0000    14.0000 </r>
       <r>   -45.6566     0.0000    14.0000 </r>
       <r>   -45.4421     0.0000    14.0000 </r>
       <r>   -45.2275     0.0000    14.0000 </r>
       <r>   -45.0130     0.0000    14.0000 </r>
       <r>   -44.7984     0.0000    14.0000 </r>
       <r>   -44.5839     0.0000    14.0000 </r>
       <r>   -44.3693     0.0000    14.0000 </r>
       <r>   -44.1548     0.0000    14.0000 </r>
       <r>   -43.9402     0.0000    14.0000 </r>
       <r>   -43.7257     0.0000    14.0000 </r>
       <r>   -43.5111     0.0000    14.0000 </r>
       <r>   -43.2966     0.0000    14.0000 </r>
       <r>   -43.0820     0.0000    14.0000 </r>
       <r>   -42.8675     0.0000    14.0000 </r>
       <r>   -42.6529     0.0000    14.0000 </r>
       <r>   -42.4384     0.0000    14.0000 </r>
       <r>   -42.2238     0.0000    14.0000 </r>
       <r>   -42.0093     0.0000    14.0000 </r>
       <r>   -41.7947     0.0000    14.0000 </r>
       <r>   -41.5802     0.0000    14.0000 </r>
       <r>   -41.3656     0.0000    14.0000 </r>
       <r>   -41.1511     0.0000    14.0000 </r>
       <r>   -40.9365     0.0000    14.0000 </r>
       <r>   -40.7220     0.0000    14.0000 </r>
       <r>   -40.5074     0.0000    14.0000 </r>
       <r>   -40.2929     0.0000    14.0000 </r>
       <r>   -40.0783     0.0000    14.0000 </r>
       <r>   -39.8638     0.0000    14.0000 </r>
       <r>   -39.6492     0.0000    14.0000 </r>
       <r>   -39.4347     0.0000    14.0000 </r>
       <r>   -39.2201     0.0000    14.0000 </r>
       <r>   -39.0056     0.0000    14.0000 </r>
       <r>   -38.7910     0.0000    14.0000 </r>
       <r>   -38.5764     0.0000    14.0000 </r>
       <r>   -38.3619     0.0000    14.0000 </r>
       <r>   -38.1473     0.0000    14.0000 </r>
       <r>   -37.9328     0.0000    14.0000 </r>
       <r>   -37.7182     0.0000    14.0000 </r>
       <r>   -37.5037     0.0000    14.0000 </r>
       <r>   -37.2891     0.0000    14.0000 </r>
       <r>   -37.0746     0.0000    14.0000 </r>
       <r>   -36.8600     0.0000    14.0000 </r>
       <r>   -36.6455     0.0000    14.0000 </r>
       <r>   -36.4309     0.0000    14.0000 </r>
       <r>   -36.2164     0.0000    14.0000 </r>
       <r>   -36.0018     0.0000    14.0000 </r>
       <r>   -35.7873     0.0000    14.0000 </r>
       <r>   -35.5727     0.0000    14.0000 </r>
       <r>   -35.3582     0.0000    14.0000 </r>
       <r>   -35.1436     0.0000    14.0000 </r>
       <r>   -34.9291     0.4450    14.0955 </r>
       <r>   -34.7145    18.0919    17.9771 </r>
       <r>   -34.5000   101.9496    39.8505 </r>
       <r>   -34.2854    46.2040    49.7637 </r>
       <r>   -34.0709     1.1014    50.0000 </r>
       <r>   -33.8563     0.0001    50.0000 </r>
       <r>   -33.6418     0.0000    50.0000 </r>
       <r>   -33.4272     0.0000    50.0000 </r>
       <r>   -33.2127     0.0000    50.0000 </r>
       <r>   -32.9981     0.0000    50.0000 </r>
       <r>   -32.7836     0.0000    50.0000 </r>
       <r>   -32.5690     0.0000    50.0000 </r>
       <r>   -32.3545     0.0000    50.0000 </r>
       <r>   -32.1399     0.0000    50.0000 </r>
       <r>   -31.9254     0.0000    50.0000 </r>
       <r>   -31.7108     0.0000    50.0000 </r>
       <r>   -31.4962     0.0000    50.0000 </r>
       <r>   -31.2817     0.0000    50.0000 </r>
       <r>   -31.0671     0.0000    50.0000 </r>
       <r>   -30.8526     0.0000    50.0000 </r>
       <r>   -30.6380     0.0000    50.0000 </r>
       <r>   -30.4235     0.0000    50.0000 </r>
       <r>   -30.2089     0.0000    50.0000 </r>
       <r>   -29.9944     0.0000    50.0000 </r>
       <r>   -29.7798     0.0000    50.0000 </r>
       <r>   -29.5653     0.0000    50.0000 </r>
       <r>   -29.3507     0.0000    50.0000 </r>
       <r>   -29.1362     0.0000    50.0000 </r>
       <r>   -28.9216     0.0000    50.0000 </r>
       <r>   -28.7071     0.0000    50.0000 </r>
       <r>   -28.4925     0.0000    50.0000 </r>
       <r>   -28.2780     0.0000    50.0000 </r>
       <r>   -28.0634     0.0000    50.0000 </r>
       <r>   -27.8489     0.0000    50.0000 </r>
       <r>   -27.6343     0.0000    50.0000 </r>
       <r>   -27.4198     0.0000    50.0000 </r>
       <r>   -27.2052     0.0000    50.0000 </r>
       <r>   -26.9907     0.0664    50.0142 </r>
       <r>   -26.7761    12.4584    52.6872 </r>
       <r>   -26.5616    37.9054    60.8199 </r>
       <r>   -26.3470    33.6571    68.0411 </r>
       <r>   -26.1325    55.0824    79.8591 </r>
       <r>   -25.9179    28.0403    85.8752 </r>
       <r>   -25.7034     0.5819    86.0000 </r>
       <r>   -25.4888     0.0000    86.0000 </r>
       <r>   -25.2743     0.0000    86.0000 </r>
       <r>   -25.0597     0.0000    86.0000 </r>
       <r>   -24.8452     0.0000    86.0000 </r>
       <r>   -24.6306     0.0000    86.0000 </r>
       <r>   -24.4161     0.0000    86.0000 </r>
       <r>   -24.2015     0.0000    86.0000 </r>
       <r>   -23.9869     0.0000    86.0000 </r>
       <r>   -23.7724     0.0000    86.0000 </r>
       <r>   -23.5578     0.0001    86.0000 </r>
       <r>   -23.3433     1.3601    86.2918 </r>
       <r>   -23.1287    35.7770    93.9678 </r>
       <r>   -22.9142   100.7281   115.5792 </r>
       <r>   -22.6996    51.9516   126.7255 </r>
       <r>   -22.4851     5.9837   128.0093 </r>
       <r>   -22.2705     7.4561   129.6090 </r>
       <r>   -22.0560    29.9446   136.0337 </r>
       <r>   -21.8414    42.9226   145.2428 </r>
       <r>   -21.6269    34.4141   152.6263 </r>
       <r>   -21.4123    50.6406   163.4914 </r>
       <r>   -21.1978    13.7766   166.4471 </r>
       <r>   -20.9832    16.4378   169.9739 </r>
       <r>   -20.7687     0.1216   170.0000 </r>
       <r>   -20.5541     0.0000   170.0000 </r>
       <r>   -20.3396     0.0000   170.0000 </r>
       <r>   -20.1250     0.0000   170.0000 </r>
       <r>   -19.9105     0.0000   170.0000 </r>
       <r>   -19.6959     0.0000   170.0000 </r>
       <r>   -19.4814     0.0000   170.0000 </r>
       <r>   -19.2668     0.0000   170.0000 </r>
       <r>   -19.0523     0.0000   170.0000 </r>
       <r>   -18.8377     0.0000   170.0000 </r>
       <r>   -18.6232     0.0000   170.0000 </r>
       <r>   -18.4086     0.0000   170.0000 </r>
       <r>   -18.1941     0.0000   170.0000 </r>
       <r>   -17.9795     0.0000   170.0000 </r>
       <r>   -17.7650     0.0000   170.0000 </r>
       <r>   -17.5504     0.0000   170.0000 </r>
       <r>   -17.3359     0.0000   170.0000 </r>
       <r>   -17.1213     0.0000   170.0000 </r>
       <r>   -16.9068     0.0000   170.0000 </r>
       <r>   -16.6922     0.0000   170.0000 </r>
       <r>   -16.4776     0.0000   170.0000 </r>
       <r>   -16.2631     0.0000   170.0000 </r>
       <r>   -16.0485     0.0000   170.0000 </r>
       <r>   -15.8340     0.0000   170.0000 </r>
       <r>   -15.6194     0.0000   170.0000 </r>
       <r>   -15.4049     0.0000   170.0000 </r>
       <r>   -15.1903     0.0000   170.0000 </r>
       <r>   -14.9758     0.0000   170.0000 </r>
       <r>   -14.7612     0.0000   170.0000 </r>
       <r>   -14.5467     0.0000   170.0000 </r>
       <r>   -14.3321     0.0000   170.0000 </r>
       <r>   -14.1176     0.0000   170.0000 </r>
       <r>   -13.9030     0.0000   170.0000 </r>
       <r>   -13.6885     0.0000   170.0000 </r>
       <r>   -13.4739     0.0000   170.0000 </r>
       <r>   -13.2594     0.0000   170.0000 </r>
       <r>   -13.0448     0.0000   170.0000 </r>
       <r>   -12.8303     0.0000   170.0000 </r>
       <r>   -12.6157     0.0000   170.0000 </r>
       <r>   -12.4012     0.0000   170.0000 </r>
       <r>   -12.1866     0.0000   170.0000 </r>
       <r>   -11.9721     0.0000   170.0000 </r>
       <r>   -11.7575     0.0000   170.0000 </r>
       <r>   -11.5430     0.0000   170.0000 </r>
       <r>   -11.3284     0.0000   170.0000 </r>
       <r>   -11.1139     0.0000   170.0000 </r>
       <r>   -10.8993     0.0000   170.0000 </r>
       <r>   -10.6848     0.0000   170.0000 </r>
       <r>   -10.4702     0.0000   170.0000 </r>
       <r>   -10.2557     0.0000   170.0000 </r>
       <r>   -10.0411     0.0000   170.0000 </r>
       <r>    -9.8266     0.0000   170.0000 </r>
       <r>    -9.6120     0.0000   170.0000 </r>
       <r>    -9.3974     0.0000   170.0000 </r>
       <r>    -9.1829     0.0000   170.0000 </r>
       <r>    -8.9683     0.0000   170.0000 </r>
       <r>    -8.7538     0.0000   170.0000 </r>
       <r>    -8.5392     0.0000   170.0000 </r>
       <r>    -8.3247     0.0000   170.0000 </r>
       <r>    -8.1101     0.0000   170.0000 </r>
       <r>    -7.8956     0.0000   170.0000 </r>
       <r>    -7.6810     0.0001   170.0000 </r>
       <r>    -7.4665     0.2979   170.0639 </r>
       <r>    -7.2519     4.8019   171.0942 </r>
       <r>    -7.0374     5.3320   172.2382 </r>
       <r>    -6.8228    10.2252   174.4320 </r>
       <r>    -6.6083    16.8254   178.0419 </r>
       <r>    -6.3937    15.4218   181.3507 </r>
       <r>    -6.1792    15.1453   184.6001 </r>
       <r>    -5.9646    14.9202   187.8013 </r>
       <r>    -5.7501    15.1330   191.0481 </r>
       <r>    -5.5355    16.2602   194.5368 </r>
       <r>    -5.3210     6.7654   195.9883 </r>
       <r>    -5.1064     0.0546   196.0000 </r>
       <r>    -4.8919     0.0000   196.0000 </r>
       <r>    -4.6773     0.0000   196.0000 </r>
       <r>    -4.4628     0.0000   196.0000 </r>
       <r>    -4.2482     0.0003   196.0001 </r>
       <r>    -4.0337     0.4119   196.0884 </r>
       <r>    -3.8191     5.3827   197.2433 </r>
       <r>    -3.6046     3.7973   198.0580 </r>
       <r>    -3.3900     7.0789   199.5768 </r>
       <r>    -3.1755    12.2294   202.2007 </r>
       <r>    -2.9609    17.4321   205.9407 </r>
       <r>    -2.7464    25.6045   211.4342 </r>
       <r>    -2.5318    23.6329   216.5047 </r>
       <r>    -2.3173    22.9721   221.4334 </r>
       <r>    -2.1027    25.6919   226.9456 </r>
       <r>    -1.8881    15.3267   230.2340 </r>
       <r>    -1.6736     9.3661   232.2435 </r>
       <r>    -1.4590     6.9074   233.7255 </r>
       <r>    -1.2445     1.2426   233.9921 </r>
       <r>    -1.0299     0.0368   234.0000 </r>
       <r>    -0.8154     0.0000   234.0000 </r>
       <r>    -0.6008     0.0000   234.0000 </r>
       <r>    -0.3863     0.0000   234.0000 </r>
       <r>    -0.1717     0.0000   234.0000 </r>
       <r>     0.0428     0.0000   234.0000 </r>
       <r>     0.2574     0.0000   234.0000 </r>
       <r>     0.4719     0.0000   234.0000 </r>
       <r>     0.6865     0.0678   234.0145 </r>
       <r>     0.9010     0.7906   234.1842 </r>
       <r>     1.1156     2.8636   234.7986 </r>
       <r>     1.3301     8.7734   236.6809 </r>
       <r>     1.5447     8.5999   238.5260 </r>
       <r>     1.7592    16.5283   242.0722 </r>
       <r>     1.9738    17.9674   245.9271 </r>
       <r>     2.1883    26.3460   251.5797 </r>
       <r>     2.4029    30.9990   258.2306 </r>
       <r>     2.6174    26.0630   263.8224 </r>
       <r>     2.8320    30.0896   270.2782 </r>
       <r>     3.0465    32.8068   277.3169 </r>
       <r>     3.2611    31.2898   284.0302 </r>
       <r>     3.4756    41.3084   292.8930 </r>
       <r>     3.6902    53.0354   304.2718 </r>
       <r>     3.9047    60.4645   317.2445 </r>
       <r>     4.1193    67.0545   331.6312 </r>
       <r>     4.3338    69.8493   346.6175 </r>
       <r>     4.5484    66.6701   360.9216 </r>
       <r>     4.7629    58.6882   373.5132 </r>
       <r>     4.9775    50.2566   384.2959 </r>
       <r>     5.1921    41.7294   393.2490 </r>
       <r>     5.4066    31.7471   400.0604 </r>
       <r>     5.6212    31.6990   406.8614 </r>
       <r>     5.8357    30.4595   413.3965 </r>
       <r>     6.0503    22.8853   418.3066 </r>
       <r>     6.2648    17.1666   421.9897 </r>
       <r>     6.4794    13.3661   424.8574 </r>
       <r>     6.6939     7.4467   426.4551 </r>
       <r>     6.9085    12.5442   429.1465 </r>
       <r>     7.1230    19.3146   433.2905 </r>
       <r>     7.3376    18.2008   437.1955 </r>
       <r>     7.5521    18.0927   441.0773 </r>
       <r>     7.7667    19.0327   445.1608 </r>
       <r>     7.9812    21.1176   449.6916 </r>
       <r>     8.1958    23.5484   454.7440 </r>
       <r>     8.4103    26.7952   460.4929 </r>
       <r>     8.6249    30.4575   467.0276 </r>
       <r>     8.8394    26.1863   472.6459 </r>
       <r>     9.0540    25.6326   478.1454 </r>
       <r>     9.2685    27.6812   484.0845 </r>
       <r>     9.4831    36.1811   491.8472 </r>
       <r>     9.6976    42.4464   500.9541 </r>
       <r>     9.9122    44.8966   510.5868 </r>
       <r>    10.1267    46.5546   520.5751 </r>
       <r>    10.3413    43.2270   529.8495 </r>
       <r>    10.5558    42.2203   538.9080 </r>
       <r>    10.7704    42.0472   547.9293 </r>
       <r>    10.9849    43.9592   557.3608 </r>
       <r>    11.1995    42.3714   566.4516 </r>
       <r>    11.4140    36.1186   574.2009 </r>
       <r>    11.6286     8.3369   575.9896 </r>
       <r>    11.8431     0.0484   576.0000 </r>
       <r>    12.0577     0.0000   576.0000 </r>
       <r>    12.2722     0.0000   576.0000 </r>
       <r>    12.4868     0.0000   576.0000 </r>
       <r>    12.7014     0.0000   576.0000 </r>
       <r>    12.9159     0.0000   576.0000 </r>
       <r>    13.1305     0.0000   576.0000 </r>
       <r>    13.3450     0.0000   576.0000 </r>
       <r>    13.5596     0.0000   576.0000 </r>
       <r>    13.7741     0.0000   576.0000 </r>
       <r>    13.9887     0.0000   576.0000 </r>
       <r>    14.2032     0.0000   576.0000 </r>
       <r>    14.4178     0.0000   576.0000 </r>
      </set>
     </set>
    </array>
   </total>
  </dos>
 </calculation>
 <structure name="finalpos" >
  <crystal>
   <varray name="basis" >
    <v>       8.81930441      -0.01526951      -0.01433192 </v>
    <v>      -0.00973491       8.87647706      -0.00933510 </v>
    <v>       0.01737909      -0.02480740       8.87960040 </v>
   </varray>
   <i name="volume">    695.13262230 </i>
   <varray name="rec_basis" >
    <v>       0.11338748       0.00012412      -0.00022157 </v>
    <v>       0.00019556       0.11265785       0.00031436 </v>
    <v>       0.00018322       0.00011864       0.11261765 </v>
   </varray>
  </crystal>
  <varray name="positions" >
   <v>       0.00186624       0.98450339       0.99873710 </v>
   <v>       0.24819660       0.98823249       0.25863770 </v>
   <v>       0.25203689       0.51381683       0.24590634 </v>
   <v>       0.50486900       0.48959677       0.99373692 </v>
   <v>       0.49282315       0.25058068       0.74959395 </v>
   <v>       0.99747866       0.49961049       0.50674136 </v>
   <v>       0.50671843       0.75373652       0.73651208 </v>
   <v>      -0.00309378       0.24268323       0.25782900 </v>
   <v>       0.75056783       0.74702548       0.00374847 </v>
   <v>       0.00724893       0.24374274       0.74331921 </v>
   <v>       0.74990455       0.24829377       0.51286594 </v>
   <v>       0.00127933       0.75363083       0.74848691 </v>
   <v>       0.25054090       0.50415135       0.75183364 </v>
   <v>       0.24600898       0.24532724      -0.00096489 </v>
   <v>       0.49976391       0.24633727       0.25071274 </v>
   <v>       0.73632458       0.98854503       0.26226065 </v>
   <v>       0.75266602       0.24594386       0.99058109 </v>
   <v>       0.26535262       0.75802591       0.00013958 </v>
   <v>       0.25327966       0.25152629       0.50133446 </v>
   <v>       0.24933794       0.75196897       0.50036538 </v>
   <v>       0.24752035       0.25064682       0.25068211 </v>
   <v>       0.25281301       0.00120336       0.00287165 </v>
   <v>      -0.00087449       0.24191941       0.00368188 </v>
   <v>       0.75022784       0.24230164       0.25332224 </v>
   <v>       0.74251763       0.99335925       0.00273648 </v>
   <v>       0.49526596       0.00119354       0.27247782 </v>
   <v>       0.00039137       0.48508055       0.25523661 </v>
   <v>       0.50883520       0.75731126      -0.01171831 </v>
   <v>       0.98536716       0.00214523       0.74650017 </v>
   <v>       0.75311302       0.24560547       0.74832261 </v>
   <v>       0.75574757       0.01038185       0.50165996 </v>
   <v>       0.50493908       0.24949102       0.49911094 </v>
   <v>       0.52915722       0.00191767       0.73735902 </v>
   <v>      -0.00478057       0.00066463       0.24769053 </v>
   <v>       0.50031391       0.24360205      -0.00231695 </v>
   <v>       0.26328096       0.75180381       0.25066668 </v>
   <v>       0.24272596       0.50258997       0.99787112 </v>
   <v>       0.00280645       0.74443283       0.00126430 </v>
   <v>       0.74307739       0.74130991       0.24817045 </v>
   <v>       0.76407294       0.50002506       0.00617296 </v>
   <v>       0.49387002       0.50682434       0.24439314 </v>
   <v>       0.25015195       0.24552979       0.75057393 </v>
   <v>       0.25484805       0.00100718       0.51546540 </v>
   <v>      -0.00131035       0.25112439       0.50092407 </v>
   <v>       0.25179165       0.75928498       0.74990455 </v>
   <v>       0.25050411       0.50181071       0.49963775 </v>
   <v>       0.99430743       0.75363815       0.49967734 </v>
   <v>      -0.00010661       0.50058028       0.75327281 </v>
   <v>       0.75328599       0.75714853       0.74471262 </v>
   <v>       0.74789461       0.49349478       0.50274006 </v>
   <v>       0.50586006       0.76711196       0.49150220 </v>
   <v>       0.50355270       0.50064276       0.74333498 </v>
   <v>       0.51613938       0.02046968       0.95168939 </v>
   <v>       0.99277353       0.53018832       0.96989333 </v>
   <v>       0.50899704       0.72924589       0.28127369 </v>
   <v>       0.22076748      -0.00103329       0.74190471 </v>
   <v>       0.47174298       0.99475672       0.51967192 </v>
   <v>       0.74074708       0.97107522       0.77689088 </v>
   <v>      -0.00041984       0.76639232       0.25343519 </v>
   <v>       0.72756818       0.51052153       0.24963143 </v>
   <v>       0.01468703       0.00632280       0.49215905 </v>
   <v>       0.50167718       0.51432167       0.48933200 </v>
   <v>       0.75212584       0.51817441       0.75868858 </v>
   <v>       0.74885650       0.72710214       0.49515118 </v>
  </varray>
 </structure>
</modeling>
