HECN                                    
           1
     8.932500    0.000000    0.000000
     0.005753    9.055598    0.000000
     0.032102   -0.015743    8.937128
   Nb   Ta   Hf   N    C    Cr   Mo
   7   6   7  13  19   6   6
Direct configuration=     1
   0.99688001  0.99204997  0.99924002
   0.25398003  0.99714995  0.24912000
   0.24803003  0.50165000  0.24955001
   0.50501006  0.49745998  0.99834003
   0.50479003  0.24631001  0.74710002
   0.99427992  0.50449999  0.49779000
   0.49950005  0.75481999  0.74817004
   0.99437004  0.23617001  0.26379999
   0.75718000  0.74102998  0.01100000
   0.00201000  0.25541000  0.73894001
   0.75307001  0.26163001  0.50533002
   0.99514004  0.74492004  0.74511997
   0.25679999  0.49462002  0.74545002
   0.24788999  0.24839000  0.99657997
   0.50833000  0.25676999  0.25376001
   0.74879004  0.98787999  0.26967001
   0.75719000  0.25603001  0.99591997
   0.24762001  0.74973999  0.99974006
   0.25272001  0.24823001  0.50015003
   0.24457999  0.75048999  0.49983999
   0.24982001  0.24942998  0.24825000
   0.26146999  0.99984002  0.99295996
   0.00281000  0.25024000  0.00130000
   0.75313998  0.24617000  0.25492002
   0.74767001  0.99748000  0.01202000
   0.50714994  0.99977000  0.24673000
   0.99051999  0.48088002  0.24100998
   0.50519005  0.76130999  0.00855000
   0.98896989  0.00202000  0.73708999
   0.75744996  0.24437997  0.74896999
   0.73632001  0.00417000  0.51063000
   0.50563996  0.23264999  0.49544997
   0.50008998  0.00061000  0.73471998
   0.99720000  0.99771992  0.25899999
   0.50427997  0.24673000  0.00262000
   0.25133999  0.74958002  0.24910999
   0.24328000  0.50072997  0.99510994
   0.99837005  0.74313996  0.00460000
   0.75633000  0.73891003  0.25767000
   0.75839004  0.50315998  0.00288000
   0.50700002  0.50333002  0.25878999
   0.24900999  0.25315000  0.74854000
   0.24446000  0.99823996  0.50287998
   0.99804009  0.24229999  0.50128003
   0.24177002  0.75340997  0.75018002
   0.25841001  0.50062002  0.50129001
   0.99000004  0.76215003  0.49746000
   0.99203996  0.50055999  0.75138002
   0.75036005  0.74888000  0.74756004
   0.74036002  0.50197000  0.50067003
   0.50575006  0.74958002  0.49720000
   0.50501003  0.50217998  0.73912003
   0.51588997  0.01358000  0.98075008
   0.99841994  0.50976998  0.98613004
   0.50379003  0.73926997  0.25905001
   0.23780002  0.01082000  0.74607998
   0.47957999  0.98308000  0.49717999
   0.74279003  0.97869994  0.76450995
   0.99864998  0.77573999  0.26102000
   0.73551001  0.51468004  0.26666001
   0.02362000  0.99783001  0.49557002
   0.50539000  0.52833005  0.49917999
   0.73876003  0.52828003  0.73814999
   0.75400003  0.72937999  0.49116997
HECN                                    
           1
     8.610152    0.001372   -0.004860
     0.006936    8.672031    0.005753
     0.026078   -0.009391    8.628466
   Nb   Ta   Hf   N    C    Cr   Mo
   7   6   7  13  19   6   6
Direct configuration=     2
   0.99750928  0.98964158  0.99729682
   0.25379560  0.99164833  0.24829274
   0.25092429  0.50701176  0.24727786
   0.50406168  0.49487662  0.99777933
   0.50189975  0.24237945  0.75079477
   0.99555641  0.50207635  0.50138785
   0.49926013  0.75985612  0.74797868
   0.99698374  0.23719611  0.26139933
   0.75422776  0.74428051  0.00939554
   0.00366569  0.25323179  0.74017413
   0.75059494  0.25730659  0.50853894
   0.99802420  0.74759421  0.74767734
   0.25530131  0.49730840  0.74936168
   0.24978336  0.24680614  0.99689478
   0.50612706  0.25101050  0.25259237
   0.74132747  0.98973465  0.26835163
   0.75523059  0.25383694  0.99318022
   0.25188455  0.75224966  0.00028482
   0.25590852  0.24822596  0.49983547
   0.24832595  0.75037476  0.49890903
   0.25007749  0.24975470  0.24883333
   0.25910500  0.00034068  0.99404337
   0.00227908  0.24817486  0.00200823
   0.75342545  0.24508011  0.25474043
   0.74808120  0.99631090  0.00751655
   0.50247428  0.00006246  0.24853020
   0.99478353  0.47958862  0.24432082
   0.50576178  0.75917295  0.00592149
   0.98799888  0.00233320  0.74326483
   0.75543776  0.24363986  0.74903816
   0.73663425  0.00544039  0.50980543
   0.50512460  0.23260596  0.49770199
   0.50318395  0.00039767  0.73769548
   0.00002730  0.00265092  0.25199862
   0.50413680  0.24798230 -0.00100101
   0.25352575  0.74888354  0.24969799
   0.24534699  0.49984890  0.99715566
   0.99769987  0.74337090  0.00330354
   0.75171153  0.74264195  0.25201356
   0.75777369  0.50345296  0.00306048
   0.49829581  0.50702711  0.25294693
   0.25071763  0.25002237  0.74863693
   0.25494488  0.99801254  0.50546694
   0.99816925  0.24727370  0.50069554
   0.24493888  0.75343840  0.75023224
   0.25364640  0.50012738  0.49832416
   0.99377885  0.75655836  0.50187094
   0.99443488  0.50075822  0.75127999
   0.74779508  0.75837831  0.75015162
   0.74753099  0.49669771  0.50268744
   0.50280659  0.75780775  0.49547112
   0.50088148  0.50041332  0.74492232
   0.51756240  0.01672069  0.97663767
   0.99883499  0.51520497  0.98159908
   0.50497804  0.73522412  0.25944188
   0.23660672  0.01124507  0.74741495
   0.47678893  0.98183721  0.49872042
   0.73922627  0.97427001  0.76661235
   0.00153433  0.77515647  0.25618875
   0.73547484  0.51294233  0.25909536
   0.02058690  0.00024308  0.49755932
   0.50087403  0.52586001  0.49782722
   0.73983917  0.52226509  0.74521480
   0.75477156  0.73413523  0.49394969
HECN                                    
           1
     8.771235    0.000686   -0.002431
     0.006345    8.863706    0.002878
     0.029088   -0.012565    8.782710
   Nb   Ta   Hf   N    C    Cr   Mo
   7   6   7  13  19   6   6
Direct configuration=     3
   0.99718342  0.99089770  0.99830158
   0.25389099  0.99451888  0.24871906
   0.24942496  0.50421334  0.24845493
   0.50455329  0.49622440  0.99806892
   0.50339672  0.24443154  0.74888186
   0.99489338  0.50334241  0.49952440
   0.49938500  0.75722808  0.74807955
   0.99562953  0.23666006  0.26264149
   0.75575902  0.74258352  0.01022799
   0.00280679  0.25436899  0.73953412
   0.75187676  0.25956355  0.50687724
   0.99652845  0.74619989  0.74635375
   0.25607734  0.49590679  0.74733840
   0.24880156  0.24763289  0.99673073
   0.50726897  0.25401533  0.25319537
   0.74519680  0.98876579  0.26903684
   0.75624702  0.25498022  0.99459811
   0.24967376  0.75094060  0.00000248
   0.25425561  0.24822822  0.49999736
   0.24638422  0.75043487  0.49938976
   0.24994386  0.24958548  0.24853143
   0.26033079  0.00007961  0.99348347
   0.00255394  0.24925270  0.00164109
   0.75327741  0.24564880  0.25483292
   0.74786926  0.99691943  0.00984698
   0.50489775 -0.00008991  0.24759989
   0.99257211  0.48026400  0.24260546
   0.50546598  0.76028724  0.00728108
   0.98850048  0.00217183  0.74006916
   0.75648085  0.24402592  0.74900321
   0.73647169  0.00477721  0.51023258
   0.50539110  0.23262967  0.49653649
   0.50157906  0.00050975  0.73615440
  -0.00143595  0.00007563  0.25562338
   0.50421220  0.24732755  0.00087368
   0.25239236  0.74924736  0.24939276
   0.24427473  0.50030954  0.99609590
   0.99804771  0.74324989  0.00397485
   0.75410785  0.74069222  0.25494394
   0.75809319  0.50330009  0.00296735
   0.50281034  0.50509516  0.25597509
   0.24983205  0.25165460  0.74858517
   0.24950847  0.99813297  0.50412480
   0.99810289  0.24467813  0.50099976
   0.24329605  0.75342384  0.75020429
   0.25611681  0.50038303  0.49986048
   0.99181804  0.75947804  0.49958481
   0.99319334  0.50065494  0.75133113
   0.74912487  0.75342259  0.74881429
   0.74381233  0.49945018  0.50163931
   0.50433377  0.75351352  0.49636970
   0.50301996  0.50133688  0.74191968
   0.51669685  0.01508053  0.97876683
   0.99862162  0.51236735  0.98394605
   0.50436168  0.73733556  0.25923730
   0.23722500  0.01102363  0.74672448
   0.47823532  0.98248603  0.49792349
   0.74107281  0.97658207  0.76552366
   0.00004039  0.77545952  0.25868833
   0.73549516  0.51384648  0.26301018
   0.02215895 -0.00101566  0.49653140
   0.50321541  0.52714809  0.49852787
   0.73927712  0.52540634  0.74155569
   0.75437117  0.73165488  0.49251235
HECN                                    
           1
     8.809529    0.000604   -0.004859
     0.006291    8.850399    0.006602
     0.026796   -0.008870    8.826450
   Nb   Ta   Hf   N    C    Cr   Mo
   7   6   7  13  19   6   6
Direct configuration=     4
   0.99879024  0.98904633  0.99527651
   0.25367537  0.98944400  0.24820125
   0.25222878  0.50947068  0.24561346
   0.50327121  0.49380027  0.99760439
   0.49980114  0.24002544  0.75248371
   0.99755544  0.50051710  0.50329466
   0.49892288  0.76258886  0.74757992
   0.99904569  0.23906178  0.25851432
   0.75155010  0.74737506  0.00758994
   0.00518426  0.25063502  0.74268047
   0.74903103  0.25374033  0.50997784
   0.99928768  0.74995203  0.75006878
   0.25327645  0.49887594  0.75140614
   0.25033667  0.24569314  0.99765742
   0.50402547  0.24868571  0.25153540
   0.73935871  0.99109752  0.26626866
   0.75461163  0.25192702  0.99236834
   0.25481338  0.75381459  0.00042873
   0.25730260  0.24829545  0.49945423
   0.24960141  0.75055920  0.49891696
   0.25041534  0.24985705  0.24902008
   0.25838425  0.00044523  0.99426805
   0.00206956  0.24772733  0.00258725
   0.75302295  0.24466026  0.25424550
   0.74752688  0.99584625  0.00449413
   0.49929773 -0.00028723  0.24884869
   0.99686475  0.48099236  0.24572355
   0.50574175  0.75875379  0.00445723
   0.98733916  0.00245218  0.74666324
   0.75405438  0.24353036  0.74913622
   0.73774670  0.00542839  0.51089687
   0.50487202  0.23340801  0.49911441
   0.50504898  0.00024013  0.73998774
   0.00027241  0.00420076  0.24856452
   0.50372335  0.24816044 -0.00223564
   0.25583140  0.74857966  0.24959135
   0.24572548  0.49958169  0.99850027
   0.99864900  0.74288975  0.00320048
   0.74871127  0.74491767  0.25019923
   0.75842456  0.50275899  0.00350075
   0.49385765  0.50872988  0.25006950
   0.25201487  0.24777430  0.74884782
   0.25980007  0.99812859  0.50780371
   0.99896884  0.25012236  0.50033513
   0.24719389  0.75451533  0.75041713
   0.25121513  0.49985068  0.49712520
   0.99604590  0.75372229  0.50310921
   0.99605456  0.50086994  0.75189719
   0.74700779  0.76230358  0.75056257
   0.74989471  0.49504822  0.50295914
   0.50202351  0.76281111  0.49381496
   0.49916443  0.49963008  0.74738200
   0.51804468  0.01805506  0.97405634
   0.99896277  0.51802555  0.97863755
   0.50509994  0.73297332  0.25953372
   0.23535605  0.01050120  0.74826718
   0.47620050  0.98195098  0.49942213
   0.73650014  0.97363180  0.76864578
   0.00287125  0.77200814  0.25284597
   0.73526979  0.51032688  0.25381975
   0.01855316  0.00244235  0.49864499
   0.49918626  0.52212961  0.49647308
   0.74127189  0.51868982  0.75145775
   0.75405054  0.73701016  0.49618733
HECN                                    
           1
     8.810732    0.000602   -0.004936
     0.006289    8.849981    0.006719
     0.026724   -0.008753    8.827824
   Nb   Ta   Hf   N    C    Cr   Mo
   7   6   7  13  19   6   6
Direct configuration=     5
   0.99884047  0.98898813  0.99518201
   0.25366862  0.98928438  0.24818513
   0.25231643  0.50963609  0.24552461
   0.50323111  0.49372402  0.99758990
   0.49968873  0.23988679  0.75259630
   0.99763871  0.50042818  0.50341255
   0.49890843  0.76275749  0.74756423
   0.99915248  0.23913739  0.25838533
   0.75141846  0.74752582  0.00750739
   0.00525863  0.25051753  0.74277887
   0.74894207  0.25355711  0.51007480
   0.99937400  0.75007001  0.75018486
   0.25318890  0.49896928  0.75153321
   0.25038469  0.24563211  0.99768642
   0.50392402  0.24851808  0.25148357
   0.73917612  0.99117090  0.26618206
   0.75456047  0.25183101  0.99229868
   0.25497411  0.75390499  0.00044205
   0.25739788  0.24829758  0.49943728
   0.24970201  0.75056312  0.49890221
   0.25043009  0.24986558  0.24903535
   0.25832339  0.00045672  0.99429255
   0.00205442  0.24767933  0.00261683
   0.75301498  0.24462917  0.25422716
   0.74751612  0.99581256  0.00432685
   0.49912262 -0.00029345  0.24888767
   0.99699901  0.48101523  0.24582102
   0.50575034  0.75870559  0.00436900
   0.98730290  0.00246091  0.74686931
   0.75397850  0.24351477  0.74914037
   0.73778658  0.00544887  0.51091763
   0.50485581  0.23343245  0.49919496
   0.50515752  0.00023159  0.74010758
   0.00032577  0.00433061  0.24834387
   0.50370804  0.24818668 -0.00233283
   0.25593895  0.74855865  0.24959759
   0.24577087  0.49955877  0.99857543
   0.99866779  0.74287843  0.00317629
   0.74854247  0.74505065  0.25005084
   0.75843493  0.50274196  0.00351743
   0.49357764  0.50884429  0.24988481
   0.25208313  0.24765224  0.74885610
   0.26012194  0.99812840  0.50791877
   0.99899591  0.25029362  0.50031429
   0.24731578  0.75454966  0.75042380
   0.25106182  0.49983397  0.49703968
   0.99617815  0.75354119  0.50321947
   0.99614404  0.50087670  0.75191490
   0.74694160  0.76258291  0.75061707
   0.75008493  0.49490974  0.50300050
   0.50195125  0.76310360  0.49373498
   0.49904391  0.49957632  0.74755270
   0.51808679  0.01814869  0.97390909
   0.99897340  0.51820360  0.97847157
   0.50512303  0.73283610  0.25954305
   0.23529762  0.01048474  0.74831539
   0.47613688  0.98193413  0.49946895
   0.73635718  0.97353895  0.76874335
   0.00295972  0.77189966  0.25266345
   0.73526266  0.51021629  0.25353257
   0.01844042  0.00255110  0.49871097
   0.49906024  0.52197177  0.49640889
   0.74133435  0.51847842  0.75176732
   0.75404055  0.73717857  0.49630211
HECN                                    
           1
     8.835247   -0.001488   -0.007070
     0.004203    8.903791    0.006787
     0.024672   -0.008757    8.845361
   Nb   Ta   Hf   N    C    Cr   Mo
   7   6   7  13  19   6   6
Direct configuration=     6
   0.00057290  0.98787135  0.99408907
   0.25201041  0.98814645  0.25056563
   0.25178192  0.51127569  0.24498172
   0.50347303  0.49246554  0.99704436
   0.49739640  0.23871850  0.75297057
   0.99928119  0.49986212  0.50565446
   0.49982994  0.76252701  0.74451212
   0.00004656  0.24175492  0.25751300
   0.75010361  0.74807444  0.00629695
   0.00736790  0.24756355  0.74358725
   0.74918982  0.25104104  0.51150386
   0.99945680  0.75095223  0.75137313
   0.25202145  0.49902492  0.75191722
   0.24935658  0.24471689  0.99828010
   0.50244054  0.24919545  0.25072826
   0.73974405  0.99115902  0.26460161
   0.75471615  0.25037359  0.99218829
   0.25705355  0.75480469  0.00033404
   0.25642091  0.24837050  0.49995547
   0.24842105  0.75079481  0.49949547
   0.25069186  0.24957237  0.24924736
   0.25739283  0.00055019  0.99503467
   0.00188811  0.24721218  0.00301231
   0.75224412  0.24388043  0.25398335
   0.74673778  0.99600461  0.00155759
   0.49792452 -0.00001153  0.24912082
   0.99837914  0.48312129  0.24804012
   0.50587188  0.75838831  0.00200432
   0.98736083  0.00266972  0.74806060
   0.75354711  0.24457289  0.74888066
   0.74076816  0.00558423  0.51004527
   0.50527435  0.23650868  0.49933334
   0.50747494  0.00018126  0.74295681
  -0.00085914  0.00146817  0.24780120
   0.50332241  0.24776928 -0.00156399
   0.25855054  0.74913592  0.24914943
   0.24518067  0.50016876  0.99893233
   0.99961733  0.74252742  0.00341822
   0.74654929  0.74416702  0.25119898
   0.75984931  0.50271395  0.00445452
   0.49498711  0.50836591  0.24907073
   0.25219311  0.24689699  0.74929365
   0.25943183  0.99892530  0.51032912
   0.99961940  0.25121298  0.50008075
   0.24868686  0.75599157  0.75056737
   0.25018627  0.49987172  0.49761205
   0.99684743  0.75276678  0.50219038
   0.99732525  0.50102066  0.75309494
   0.74830542  0.75999989  0.74911548
   0.74917400  0.49651901  0.50228639
   0.50375191  0.76301176  0.49095997
   0.49947729  0.49987424  0.74734785
   0.51900920  0.01951352  0.97091299
   0.99857756  0.52198028  0.97405632
   0.50518336  0.72923660  0.26171507
   0.23184874  0.00848449  0.74841344
   0.47660546  0.98319263  0.50061308
   0.73203553  0.97588656  0.77221967
   0.00225210  0.77168661  0.25115184
   0.73075114  0.51138871  0.25013233
   0.01969005  0.00399826  0.49798936
   0.50040884  0.52107786  0.49490145
   0.74219096  0.51960458  0.75647154
   0.75301078  0.73461497  0.49721388
HECN                                    
           1
     8.844096   -0.002242   -0.007840
     0.003450    8.923213    0.006812
     0.023931   -0.008758    8.851692
   Nb   Ta   Hf   N    C    Cr   Mo
   7   6   7  13  19   6   6
Direct configuration=     7
   0.00119630  0.98747084  0.99369550
   0.25141365  0.98773805  0.25142301
   0.25158962  0.51186388  0.24478610
   0.50355995  0.49201407  0.99684787
   0.49657122  0.23829916  0.75310520
   0.99987253  0.49965917  0.50646221
   0.50016136  0.76244440  0.74341274
   0.00036853  0.24269408  0.25719884
   0.74963028  0.74827115  0.00586080
   0.00812694  0.24650394  0.74387863
   0.74927890  0.25013838  0.51201868
   0.99948678  0.75126875  0.75180118
   0.25160127  0.49904478  0.75205546
   0.24898649  0.24438846  0.99849388
   0.50190656  0.24943834  0.25045605
   0.73994833  0.99115481  0.26403233
   0.75477205  0.24985074  0.99214854
   0.25780211  0.75512764  0.00029530
   0.25606931  0.24839658  0.50014205
   0.24796005  0.75087783  0.49970907
   0.25078607  0.24946720  0.24932376
   0.25705796  0.00058365  0.99530192
   0.00182824  0.24704456  0.00315476
   0.75196656  0.24361175  0.25389545
   0.74645740  0.99607344  0.00055995
   0.49749331  0.00008951  0.24920470
   0.99887628  0.48387698  0.24883963
   0.50591540  0.75827449  0.00115251
   0.98738180  0.00274464  0.74848975
   0.75339191  0.24495246  0.74878707
   0.74184130  0.00563304  0.50973127
   0.50542528  0.23761235  0.49938321
   0.50830933  0.00016339  0.74398339
  -0.00128594  0.00044112  0.24760562
   0.50318364  0.24761950 -0.00128707
   0.25949059  0.74934325  0.24898822
   0.24496832  0.50038756  0.99906084
   0.99995910  0.74240157  0.00350546
   0.74583187  0.74384983  0.25161240
   0.76035848  0.50270401  0.00479221
   0.49549433  0.50819440  0.24877759
   0.25223266  0.24662604  0.74945127
   0.25918370  0.99921114  0.51119734
   0.99984388  0.25154286  0.49999668
   0.24918051  0.75650900  0.75061920
   0.24987118  0.49988518  0.49781816
   0.99708818  0.75248900  0.50181973
   0.99775053  0.50107241  0.75352013
   0.74879598  0.75907331  0.74857468
   0.74884619  0.49709628  0.50202907
   0.50439980  0.76297897  0.48996049
   0.49963329  0.49998117  0.74727409
   0.51934108  0.02000326  0.96983378
   0.99843503  0.52333519  0.97246577
   0.50520495  0.72794524  0.26249751
   0.23060717  0.00776658  0.74844846
   0.47677433  0.98364418  0.50102527
   0.73048048  0.97672843  0.77347158
   0.00199725  0.77161011  0.25060725
   0.72912706  0.51180896  0.24890706
   0.02013991  0.00451755  0.49772953
   0.50089405  0.52075727  0.49435853
   0.74249979  0.52000868  0.75816621
   0.75263997  0.73369516  0.49754224
HECN                                    
           1
     8.795929   -0.003886   -0.008407
     0.001759    8.881183    0.004537
     0.023199   -0.010946    8.811747
   Nb   Ta   Hf   N    C    Cr   Mo
   7   6   7  13  19   6   6
Direct configuration=     8
   0.00309583  0.98634803  0.99374764
   0.25050029  0.98686746  0.25410457
   0.25115285  0.51294026  0.24527389
   0.50354169  0.49087475  0.99566699
   0.49447378  0.23850941  0.75304324
   0.99981950  0.49943135  0.50856331
   0.50257925  0.76092429  0.73927559
   0.00036947  0.24333182  0.25691552
   0.74876955  0.74835439  0.00490494
   0.00959657  0.24360934  0.74396089
   0.74988120  0.24910274  0.51305127
   0.99928883  0.75232727  0.75163449
   0.25174339  0.49957669  0.75174571
   0.24788160  0.24396509  0.99920295
   0.50097685  0.24954860  0.25067838
   0.73977728  0.99039650  0.26314394
   0.75502692  0.24912251  0.99221702
   0.25999277  0.75592228 -0.00009466
   0.25533357  0.24880089  0.50044505
   0.24788635  0.75127962  0.49990145
   0.25047289  0.24939729  0.24972104
   0.25598968  0.00060886  0.99658478
   0.00153309  0.24617888  0.00336955
   0.75139209  0.24289266  0.25375035
   0.74596216  0.99600336 -0.00107401
   0.49715956  0.00139396  0.24980461
   0.00046963  0.48495620  0.25158816
   0.50641070  0.75763359 -0.00172764
   0.98818781  0.00265937  0.74823260
   0.75324209  0.24564927  0.74862882
   0.74541928  0.00695272  0.50765351
   0.50602405  0.24133338  0.49942391
   0.51050876 -0.00024321  0.74590049
  -0.00267351  0.00042706  0.24818602
   0.50266146  0.24697189 -0.00077643
   0.26152191  0.75021611  0.24920780
   0.24403680  0.50103748  0.99876639
   0.00074469  0.74261115  0.00348385
   0.74451172  0.74281970  0.25213935
   0.76219166  0.50260522  0.00594006
   0.49544968  0.50637084  0.24807814
   0.25219725  0.24620466  0.75019366
   0.25846581  0.99953635  0.51340534
   0.00004333  0.25146814  0.50014676
   0.24998659  0.75769545  0.75059451
   0.25004905  0.50019508  0.49886164
   0.99649065  0.75270631  0.50053501
   0.99815700  0.50083832  0.75413448
   0.75016691  0.75804371  0.74724895
   0.74812642  0.49720560  0.50144951
   0.50549500  0.76259800  0.48685502
   0.50081771  0.50043650  0.74624193
   0.52017664  0.02191461  0.96772343
   0.99745084  0.52735466  0.96927134
   0.50576174  0.72543087  0.26636539
   0.22582483  0.00556241  0.74829506
   0.47646731  0.98524061  0.50242076
   0.72618450  0.97710603  0.77630606
   0.00091104  0.77026491  0.25012042
   0.72649635  0.51346341  0.24657545
   0.02034527  0.00564389  0.49653545
   0.50186741  0.51952563  0.49335617
   0.74368016  0.52142069  0.76087473
   0.75193484  0.73043483  0.49822559
HECN                                    
           1
     8.805246   -0.003568   -0.008298
     0.002086    8.889313    0.004977
     0.023341   -0.010523    8.819474
   Nb   Ta   Hf   N    C    Cr   Mo
   7   6   7  13  19   6   6
Direct configuration=     9
   0.00272642  0.98656618  0.99373754
   0.25067793  0.98703656  0.25358357
   0.25123776  0.51273105  0.24517906
   0.50354530  0.49109624  0.99589650
   0.49488171  0.23846863  0.75305530
   0.99982979  0.49947553  0.50815506
   0.50210910  0.76121984  0.74007952
   0.00036926  0.24320789  0.25697054
   0.74893696  0.74833829  0.00509068
   0.00931084  0.24417185  0.74394503
   0.74976408  0.24930395  0.51285067
   0.99932729  0.75212156  0.75166683
   0.25171573  0.49947332  0.75180587
   0.24809650  0.24404738  0.99906521
   0.50115766  0.24952720  0.25063518
   0.73981058  0.99054392  0.26331660
   0.75497738  0.24926403  0.99220375
   0.25956668  0.75576778 -0.00001896
   0.25547665  0.24872232  0.50038616
   0.24790067  0.75120152  0.49986405
   0.25053380  0.24941087  0.24964385
   0.25619743  0.00060393  0.99633552
   0.00159053  0.24634713  0.00332786
   0.75150385  0.24303244  0.25377858
   0.74605850  0.99601708 -0.00075651
   0.49722441  0.00114043  0.24968798
   0.00015966  0.48474626  0.25105401
   0.50631443  0.75775827 -0.00116798
   0.98803105  0.00267593  0.74828256
   0.75327121  0.24551386  0.74865953
   0.74472337  0.00669622  0.50805713
   0.50590746  0.24061018  0.49941581
   0.51008097 -0.00016436  0.74552797
  -0.00240364  0.00042981  0.24807326
   0.50276304  0.24709775 -0.00087561
   0.26112680  0.75004638  0.24916506
   0.24421795  0.50091122  0.99882358
   0.00059189  0.74257039  0.00348803
   0.74476851  0.74301993  0.25203703
   0.76183511  0.50262430  0.00571700
   0.49545844  0.50672528  0.24821414
   0.25220414  0.24628652  0.75004943
   0.25860539  0.99947307  0.51297629
   0.00000454  0.25148264  0.50011760
   0.24982977  0.75746484  0.75059924
   0.25001443  0.50013479  0.49865886
   0.99660688  0.75266416  0.50078464
   0.99807794  0.50088377  0.75401512
   0.74990033  0.75824382  0.74750659
   0.74826641  0.49718441  0.50156213
   0.50528205  0.76267215  0.48745845
   0.50058734  0.50034801  0.74644245
   0.52001409  0.02154321  0.96813338
   0.99764215  0.52657367  0.96989187
   0.50565349  0.72591932  0.26561394
   0.22675504  0.00599097  0.74832504
   0.47652694  0.98493029  0.50214952
   0.72701998  0.97703266  0.77575533
   0.00112235  0.77052641  0.25021510
   0.72700798  0.51314208  0.24702846
   0.02030530  0.00542504  0.49676741
   0.50167816  0.51976501  0.49355099
   0.74345050  0.52114610  0.76034835
   0.75207209  0.73106846  0.49809298
HECN                                    
           1
     8.813019   -0.004809   -0.007244
     0.000831    8.884406    0.002416
     0.024436   -0.013073    8.839162
   Nb   Ta   Hf   N    C    Cr   Mo
   7   6   7  13  19   6   6
Direct configuration=    10
   0.00400318  0.98608914  0.99484540
   0.25081890  0.98707432  0.25540884
   0.25070438  0.51275912  0.24624282
   0.50312910  0.49057227  0.99470210
   0.49385457  0.24008582  0.75260590
   0.99844495  0.49946966  0.50910970
   0.50453869  0.75896992  0.73654166
  -0.00036234  0.24268831  0.25706357
   0.74854156  0.74842860  0.00449964
   0.00935364  0.24239441  0.74393490
   0.75020925  0.24944263  0.51308089
   0.99929326  0.75335360  0.75041470
   0.25262989  0.50064495  0.75113570
   0.24738713  0.24435890  0.99978482
   0.50096433  0.24876998  0.25146572
   0.73882873  0.98969853  0.26312603
   0.75517816  0.24924168  0.99240809
   0.26149939  0.75623136 -0.00046441
   0.25539843  0.24931080  0.50036238
   0.24873470  0.75144861  0.49976001
   0.24978489  0.24963728  0.25012321
   0.25559367  0.00059632  0.99766190
   0.00124873  0.24544549  0.00332843
   0.75132737  0.24276696  0.25368690
   0.74608629  0.99570547 -0.00061219
   0.49725324  0.00247503  0.25041361
   0.00132822  0.48510442  0.25319244
   0.50697494  0.75698916 -0.00360345
   0.98881967  0.00210368  0.74702739
   0.75328191  0.24553679  0.74880283
   0.74767295  0.00836778  0.50597960
   0.50628195  0.24368794  0.49969815
   0.51096124 -0.00067430  0.74541957
  -0.00324111  0.00214650  0.24876652
   0.50227138  0.24658617 -0.00091207
   0.26222743  0.75073382  0.24977725
   0.24324083  0.50134734  0.99827145
   0.00122645  0.74338374  0.00306564
   0.74433210  0.74273927  0.25143737
   0.76351612  0.50236634  0.00652874
   0.49361572  0.50467549  0.24741817
   0.25217938  0.24595365  0.75068383
   0.25868998  0.99943267  0.51455142
  -0.00011596  0.25095785  0.50050184
   0.25014204  0.75823914  0.75025157
   0.25080783  0.50053627  0.49956725
   0.99547508  0.75336328  0.49993947
   0.99781488  0.50038423  0.75380347
   0.75074456  0.75953071  0.74675685
   0.74839343  0.49548688  0.50139664
   0.50527371  0.76307504  0.48534944
   0.50181396  0.50054429  0.74523990
   0.51985792  0.02297837  0.96817273
   0.99655410  0.52880743  0.96956908
   0.50629644  0.72569595  0.26964496
   0.22269298  0.00408623  0.74818620
   0.47597130  0.98676851  0.50345402
   0.72521181  0.97604264  0.77652866
   0.00029844  0.76824067  0.25079063
   0.72796243  0.51319425  0.24628311
   0.01861009  0.00583092  0.49584603
   0.50156613  0.51739864  0.49324546
   0.74497527  0.52116563  0.76041068
   0.75183068  0.72953319  0.49832697
HECN                                    
           1
     8.817296   -0.005492   -0.006664
     0.000140    8.881707    0.001007
     0.025038   -0.014476    8.849994
   Nb   Ta   Hf   N    C    Cr   Mo
   7   6   7  13  19   6   6
Direct configuration=    11
   0.00470483  0.98582683  0.99545334
   0.25089627  0.98709540  0.25641074
   0.25041115  0.51277469  0.24682675
   0.50290038  0.49028364  0.99404643
   0.49329017  0.24097582  0.75235955
   0.99768372  0.49946647  0.50963380
   0.50587415  0.75773113  0.73459921
  -0.00076451  0.24240228  0.25711460
   0.74832428  0.74847819  0.00417526
   0.00937702  0.24141605  0.74392905
   0.75045393  0.24951903  0.51320726
   0.99927474  0.75403156  0.74972760
   0.25313249  0.50128981  0.75076797
   0.24699721  0.24453043  0.00017992
   0.50085795  0.24835331  0.25192150
   0.73828901  0.98923310  0.26302135
   0.75528850  0.24922942  0.99252024
   0.26256175  0.75648661 -0.00070897
   0.25535549  0.24963470  0.50034943
   0.24919315  0.75158466  0.49970288
   0.24937325  0.24976193  0.25038641
   0.25526172  0.00059229  0.99838999
   0.00106079  0.24494918  0.00332863
   0.75123035  0.24262080  0.25363654
   0.74610152  0.99553397 -0.00053302
   0.49726914  0.00320975  0.25081212
   0.00197040  0.48530199  0.25436620
   0.50733809  0.75656549 -0.00494045
   0.98925316  0.00178856  0.74633828
   0.75328778  0.24554944  0.74888149
   0.74929443  0.00928777  0.50483931
   0.50648801  0.24538211  0.49985360
   0.51144504 -0.00095493  0.74535993
  -0.00370133  0.00309146  0.24914739
   0.50200111  0.24630453 -0.00093213
   0.26283240  0.75111238  0.25011332
   0.24270384  0.50158723  0.99796852
   0.00157532  0.74383142  0.00283388
   0.74409225  0.74258466  0.25110820
   0.76444000  0.50222460  0.00697415
   0.49260278  0.50354695  0.24698105
   0.25216570  0.24577052  0.75103200
   0.25873637  0.99941068  0.51541600
  -0.00018226  0.25066904  0.50071268
   0.25031375  0.75866531  0.75006083
   0.25124389  0.50075746  0.50006588
   0.99485310  0.75374788  0.49947574
   0.99767026  0.50010922  0.75368723
   0.75120874  0.76023900  0.74634546
   0.74846313  0.49455249  0.50130553
   0.50526929  0.76329648  0.48419187
   0.50248826  0.50065223  0.74457977
   0.51977219  0.02376832  0.96819457
   0.99595626  0.53003682  0.96939232
   0.50664955  0.72557368  0.27185753
   0.22046016  0.00303746  0.74810995
   0.47566596  0.98778049  0.50417039
   0.72421783  0.97549768  0.77695309
  -0.00015463  0.76698254  0.25110623
   0.72848709  0.51322293  0.24587393
   0.01767842  0.00605406  0.49534046
   0.50150438  0.51609606  0.49307739
   0.74581334  0.52117651  0.76044480
   0.75169786  0.72868814  0.49845518
HECN                                    
           1
     8.830506   -0.006080   -0.007390
    -0.000439    8.900906    0.001635
     0.024353   -0.013884    8.856803
   Nb   Ta   Hf   N    C    Cr   Mo
   7   6   7  13  19   6   6
Direct configuration=    12
   0.00440236  0.98578607  0.99647028
   0.25077076  0.98751620  0.25685076
   0.24987458  0.51286863  0.24700046