  64  64   0   0
  0.2218804E+02  0.1124000E-08  0.1124000E-08  0.1124000E-08  0.5000000E-15
  1.000000000000000E-004
  CAR 
 HECN                                    
     12.93069393    -32.89792747  301      8.38519631      1.00000000
    -32.898  0.0000E+00  0.0000E+00
    -32.745  0.0000E+00  0.0000E+00
    -32.592  0.0000E+00  0.0000E+00
    -32.440  0.0000E+00  0.0000E+00
    -32.287  0.0000E+00  0.0000E+00
    -32.134  0.0000E+00  0.0000E+00
    -31.981  0.0000E+00  0.0000E+00
    -31.829  0.0000E+00  0.0000E+00
    -31.676  0.0000E+00  0.0000E+00
    -31.523  0.0000E+00  0.0000E+00
    -31.370  0.2616E-15  0.3997E-16
    -31.218  0.8045E-09  0.1229E-09
    -31.065  0.2685E-04  0.4102E-05
    -30.912  0.1189E-01  0.1820E-02
    -30.759  0.1607E+00  0.2637E-01
    -30.606  0.5840E+00  0.1156E+00
    -30.454  0.1290E+01  0.3126E+00
    -30.301  0.6582E+00  0.4131E+00
    -30.148  0.4487E-01  0.4200E+00
    -29.995  0.1213E-03  0.4200E+00
    -29.843  0.5602E-08  0.4200E+00
    -29.690  0.3154E-14  0.4200E+00
    -29.537  0.0000E+00  0.4200E+00
    -29.384  0.0000E+00  0.4200E+00
    -29.232  0.0000E+00  0.4200E+00
    -29.079  0.0000E+00  0.4200E+00
    -28.926  0.0000E+00  0.4200E+00
    -28.773  0.0000E+00  0.4200E+00
    -28.621  0.0000E+00  0.4200E+00
    -28.468  0.1816E-10  0.4200E+00
    -28.315  0.2207E-05  0.4200E+00
    -28.162  0.3419E-02  0.4205E+00
    -28.010  0.1293E+00  0.4403E+00
    -27.857  0.4809E+00  0.5137E+00
    -27.704  0.9169E+00  0.6538E+00
    -27.551  0.6467E+00  0.7526E+00
    -27.398  0.1731E+00  0.7790E+00
    -27.246  0.6608E-02  0.7801E+00
    -27.093  0.5041E-01  0.7878E+00
    -26.940  0.4055E+00  0.8497E+00
    -26.787  0.8070E+00  0.9730E+00
    -26.635  0.7988E+00  0.1095E+01
    -26.482  0.2847E+00  0.1138E+01
    -26.329  0.9845E-02  0.1140E+01
    -26.176  0.9039E-05  0.1140E+01
    -26.024  0.2609E-03  0.1140E+01
    -25.871  0.4292E-01  0.1147E+01
    -25.718  0.2439E+00  0.1184E+01
    -25.565  0.3840E+00  0.1243E+01
    -25.413  0.1059E+01  0.1404E+01
    -25.260  0.7253E+00  0.1515E+01
    -25.107  0.2724E+00  0.1557E+01
    -24.954  0.2179E-01  0.1560E+01
    -24.802  0.6590E-04  0.1560E+01
    -24.649  0.3045E-08  0.1560E+01
    -24.496  0.6383E-07  0.1560E+01
    -24.343  0.4092E-03  0.1560E+01
    -24.190  0.4000E-01  0.1566E+01
    -24.038  0.1974E+00  0.1596E+01
    -23.885  0.3975E+00  0.1657E+01
    -23.732  0.5046E+00  0.1734E+01
    -23.579  0.5888E+00  0.1824E+01
    -23.427  0.4016E+00  0.1885E+01
    -23.274  0.2141E+00  0.1918E+01
    -23.121  0.1216E-01  0.1920E+01
    -22.968  0.1950E-04  0.1920E+01
    -22.816  0.4562E-09  0.1920E+01
    -22.663  0.1163E-15  0.1920E+01
    -22.510  0.0000E+00  0.1920E+01
    -22.357  0.0000E+00  0.1920E+01
    -22.205  0.0000E+00  0.1920E+01
    -22.052  0.0000E+00  0.1920E+01
    -21.899  0.0000E+00  0.1920E+01
    -21.746  0.0000E+00  0.1920E+01
    -21.594  0.0000E+00  0.1920E+01
    -21.441  0.0000E+00  0.1920E+01
    -21.288  0.0000E+00  0.1920E+01
    -21.135  0.0000E+00  0.1920E+01
    -20.982  0.0000E+00  0.1920E+01
    -20.830  0.0000E+00  0.1920E+01
    -20.677  0.0000E+00  0.1920E+01
    -20.524  0.0000E+00  0.1920E+01
    -20.371  0.0000E+00  0.1920E+01
    -20.219  0.0000E+00  0.1920E+01
    -20.066  0.0000E+00  0.1920E+01
    -19.913  0.0000E+00  0.1920E+01
    -19.760  0.0000E+00  0.1920E+01
    -19.608  0.0000E+00  0.1920E+01
    -19.455  0.0000E+00  0.1920E+01
    -19.302  0.0000E+00  0.1920E+01
    -19.149  0.0000E+00  0.1920E+01
    -18.997  0.0000E+00  0.1920E+01
    -18.844  0.0000E+00  0.1920E+01
    -18.691  0.0000E+00  0.1920E+01
    -18.538  0.0000E+00  0.1920E+01
    -18.386  0.0000E+00  0.1920E+01
    -18.233  0.0000E+00  0.1920E+01
    -18.080  0.0000E+00  0.1920E+01
    -17.927  0.0000E+00  0.1920E+01
    -17.774  0.0000E+00  0.1920E+01
    -17.622  0.0000E+00  0.1920E+01
    -17.469  0.0000E+00  0.1920E+01
    -17.316  0.0000E+00  0.1920E+01
    -17.163  0.0000E+00  0.1920E+01
    -17.011  0.0000E+00  0.1920E+01
    -16.858  0.0000E+00  0.1920E+01
    -16.705  0.0000E+00  0.1920E+01
    -16.552  0.0000E+00  0.1920E+01
    -16.400  0.0000E+00  0.1920E+01
    -16.247  0.0000E+00  0.1920E+01
    -16.094  0.0000E+00  0.1920E+01
    -15.941  0.0000E+00  0.1920E+01
    -15.789  0.0000E+00  0.1920E+01
    -15.636  0.0000E+00  0.1920E+01
    -15.483  0.0000E+00  0.1920E+01
    -15.330  0.0000E+00  0.1920E+01
    -15.178  0.0000E+00  0.1920E+01
    -15.025  0.0000E+00  0.1920E+01
    -14.872  0.0000E+00  0.1920E+01
    -14.719  0.0000E+00  0.1920E+01
    -14.566  0.0000E+00  0.1920E+01
    -14.414  0.0000E+00  0.1920E+01
    -14.261  0.0000E+00  0.1920E+01
    -14.108  0.0000E+00  0.1920E+01
    -13.955  0.0000E+00  0.1920E+01
    -13.803  0.0000E+00  0.1920E+01
    -13.650  0.0000E+00  0.1920E+01
    -13.497  0.0000E+00  0.1920E+01
    -13.344  0.0000E+00  0.1920E+01
    -13.192  0.0000E+00  0.1920E+01
    -13.039  0.0000E+00  0.1920E+01
    -12.886  0.0000E+00  0.1920E+01
    -12.733  0.0000E+00  0.1920E+01
    -12.581  0.0000E+00  0.1920E+01
    -12.428  0.0000E+00  0.1920E+01
    -12.275  0.0000E+00  0.1920E+01
    -12.122  0.0000E+00  0.1920E+01
    -11.970  0.0000E+00  0.1920E+01
    -11.817  0.0000E+00  0.1920E+01
    -11.664  0.0000E+00  0.1920E+01
    -11.511  0.0000E+00  0.1920E+01
    -11.358  0.0000E+00  0.1920E+01
    -11.206  0.0000E+00  0.1920E+01
    -11.053  0.0000E+00  0.1920E+01
    -10.900  0.0000E+00  0.1920E+01
    -10.747  0.0000E+00  0.1920E+01
    -10.595  0.0000E+00  0.1920E+01
    -10.442  0.0000E+00  0.1920E+01
    -10.289  0.0000E+00  0.1920E+01
    -10.136  0.0000E+00  0.1920E+01
     -9.984  0.0000E+00  0.1920E+01
     -9.831  0.0000E+00  0.1920E+01
     -9.678  0.0000E+00  0.1920E+01
     -9.525  0.0000E+00  0.1920E+01
     -9.373  0.0000E+00  0.1920E+01
     -9.220  0.0000E+00  0.1920E+01
     -9.067  0.0000E+00  0.1920E+01
     -8.914  0.0000E+00  0.1920E+01
     -8.762  0.0000E+00  0.1920E+01
     -8.609  0.4427E-14  0.1920E+01
     -8.456  0.2632E-08  0.1920E+01
     -8.303  0.1987E-04  0.1920E+01
     -8.150  0.3258E-02  0.1921E+01
     -7.998  0.3886E-01  0.1926E+01
     -7.845  0.7373E-01  0.1938E+01
     -7.692  0.3952E-01  0.1944E+01
     -7.539  0.1032E+00  0.1960E+01
     -7.387  0.1106E+00  0.1976E+01
     -7.234  0.7248E-01  0.1987E+01
     -7.081  0.1494E+00  0.2010E+01
     -6.928  0.1686E+00  0.2036E+01
     -6.776  0.2382E+00  0.2072E+01
     -6.623  0.2478E+00  0.2110E+01
     -6.470  0.2585E+00  0.2150E+01
     -6.317  0.1620E+00  0.2175E+01
     -6.165  0.3551E-01  0.2180E+01
     -6.012  0.3590E-03  0.2180E+01
     -5.859  0.5742E-07  0.2180E+01
     -5.706  0.1101E-12  0.2180E+01
     -5.554  0.0000E+00  0.2180E+01
     -5.401  0.0000E+00  0.2180E+01
     -5.248  0.5383E-18  0.2180E+01
     -5.095  0.4254E-11  0.2180E+01
     -4.942  0.3506E-06  0.2180E+01
     -4.790  0.3679E-03  0.2180E+01
     -4.637  0.1189E-01  0.2182E+01
     -4.484  0.5261E-01  0.2190E+01
     -4.331  0.5708E-01  0.2199E+01
     -4.179  0.3152E-01  0.2203E+01
     -4.026  0.9344E-01  0.2218E+01
     -3.873  0.8923E-01  0.2231E+01
     -3.720  0.9971E-01  0.2247E+01
     -3.568  0.1452E+00  0.2269E+01
     -3.415  0.2048E+00  0.2300E+01
     -3.262  0.2584E+00  0.2340E+01
     -3.109  0.2319E+00  0.2375E+01
     -2.957  0.2624E+00  0.2415E+01
     -2.804  0.2476E+00  0.2453E+01
     -2.651  0.1703E+00  0.2479E+01
     -2.498  0.2007E+00  0.2510E+01
     -2.346  0.1723E+00  0.2536E+01
     -2.193  0.1048E+00  0.2552E+01
     -2.040  0.4785E-01  0.2559E+01
     -1.887  0.5524E-02  0.2560E+01
     -1.734  0.4264E-04  0.2560E+01
     -1.582  0.8411E-08  0.2560E+01
     -1.429  0.2215E-13  0.2560E+01
     -1.276  0.0000E+00  0.2560E+01
     -1.123  0.0000E+00  0.2560E+01
     -0.971  0.0000E+00  0.2560E+01
     -0.818  0.0000E+00  0.2560E+01
     -0.665  0.0000E+00  0.2560E+01
     -0.512  0.0000E+00  0.2560E+01
     -0.360  0.0000E+00  0.2560E+01
     -0.207  0.9572E-12  0.2560E+01
     -0.054  0.1109E-06  0.2560E+01
      0.099  0.1677E-03  0.2560E+01
      0.251  0.5576E-02  0.2561E+01
      0.404  0.1261E-01  0.2563E+01
      0.557  0.3001E-01  0.2567E+01
      0.710  0.9726E-01  0.2582E+01
      0.862  0.9721E-01  0.2597E+01
      1.015  0.8826E-01  0.2611E+01
      1.168  0.1682E+00  0.2636E+01
      1.321  0.1791E+00  0.2664E+01
      1.474  0.2297E+00  0.2699E+01
      1.626  0.3034E+00  0.2745E+01
      1.779  0.3095E+00  0.2792E+01
      1.932  0.2756E+00  0.2834E+01
      2.085  0.2432E+00  0.2872E+01
      2.237  0.3100E+00  0.2919E+01
      2.390  0.3811E+00  0.2977E+01
      2.543  0.3310E+00  0.3028E+01
      2.696  0.3813E+00  0.3086E+01
      2.848  0.4214E+00  0.3150E+01
      3.001  0.4408E+00  0.3218E+01
      3.154  0.5064E+00  0.3295E+01
      3.307  0.6227E+00  0.3390E+01
      3.459  0.6314E+00  0.3487E+01
      3.612  0.6801E+00  0.3591E+01
      3.765  0.6679E+00  0.3693E+01
      3.918  0.6143E+00  0.3786E+01
      4.070  0.6154E+00  0.3880E+01
      4.223  0.6109E+00  0.3974E+01
      4.376  0.5401E+00  0.4056E+01
      4.529  0.4317E+00  0.4122E+01
      4.682  0.3622E+00  0.4178E+01
      4.834  0.3362E+00  0.4229E+01
      4.987  0.3253E+00  0.4279E+01
      5.140  0.3061E+00  0.4325E+01
      5.293  0.2164E+00  0.4358E+01
      5.445  0.1981E+00  0.4389E+01
      5.598  0.1994E+00  0.4419E+01
      5.751  0.1667E+00  0.4445E+01
      5.904  0.1450E+00  0.4467E+01
      6.056  0.4994E-01  0.4474E+01
      6.209  0.5801E-01  0.4483E+01
      6.362  0.1123E+00  0.4500E+01
      6.515  0.1430E+00  0.4522E+01
      6.667  0.1744E+00  0.4549E+01
      6.820  0.1958E+00  0.4579E+01
      6.973  0.1987E+00  0.4609E+01
      7.126  0.1839E+00  0.4637E+01
      7.278  0.1863E+00  0.4666E+01
      7.431  0.1639E+00  0.4691E+01
      7.584  0.1494E+00  0.4714E+01
      7.737  0.2247E+00  0.4748E+01
      7.890  0.2705E+00  0.4789E+01
      8.042  0.2965E+00  0.4835E+01
      8.195  0.2568E+00  0.4874E+01
      8.348  0.2482E+00  0.4912E+01
      8.501  0.2142E+00  0.4944E+01
      8.653  0.2920E+00  0.4989E+01
      8.806  0.3864E+00  0.5048E+01
      8.959  0.4722E+00  0.5120E+01
      9.112  0.4916E+00  0.5195E+01
      9.264  0.5092E+00  0.5273E+01
      9.417  0.5492E+00  0.5357E+01
      9.570  0.5429E+00  0.5440E+01
      9.723  0.5445E+00  0.5523E+01
      9.875  0.5873E+00  0.5613E+01
     10.028  0.6475E+00  0.5712E+01
     10.181  0.6612E+00  0.5813E+01
     10.334  0.6274E+00  0.5908E+01
     10.487  0.6121E+00  0.6002E+01
     10.639  0.5775E+00  0.6090E+01
     10.792  0.3654E+00  0.6146E+01
     10.945  0.8765E-01  0.6159E+01
     11.098  0.3745E-02  0.6160E+01
     11.250  0.5758E-05  0.6160E+01
     11.403  0.1364E-09  0.6160E+01
     11.556  0.3876E-16  0.6160E+01
     11.709  0.0000E+00  0.6160E+01
     11.861  0.0000E+00  0.6160E+01
     12.014  0.0000E+00  0.6160E+01
     12.167  0.0000E+00  0.6160E+01
     12.320  0.0000E+00  0.6160E+01
     12.472  0.0000E+00  0.6160E+01
     12.625  0.0000E+00  0.6160E+01
     12.778  0.0000E+00  0.6160E+01
     12.931  0.0000E+00  0.6160E+01
