<?xml version="1.0" encoding="ISO-8859-1"?>
<modeling>
 <generator>
  <i name="program" type="string">vasp </i>
  <i name="version" type="string">6.4.3  </i>
  <i name="subversion" type="string">19Mar24 (build Sep 18 2024 11:30:23) complex                          parallel </i>
  <i name="platform" type="string">LinuxIFC </i>
  <i name="date" type="string">2026 07 08 </i>
  <i name="time" type="string">00:12:44 </i>
 </generator>
 <incar>
  <i type="string" name="SYSTEM">HECN</i>
  <i type="int" name="ISTART">     0</i>
  <i type="string" name="PREC">Normal</i>
  <i type="string" name="ALGO">Fast</i>
  <i type="int" name="ICHARG">     2</i>
  <i type="int" name="NELM">    60</i>
  <i type="int" name="IBRION">     2</i>
  <i name="EDIFF">      0.00001000</i>
  <i name="EDIFFG">     -0.01000000</i>
  <i type="int" name="NSW">   100</i>
  <i type="int" name="ISIF">     3</i>
  <i name="ENCUT">    400.00000000</i>
  <i name="POTIM">      0.50000000</i>
  <i type="logical" name="LREAL"> F  </i>
  <i type="int" name="ISMEAR">     0</i>
  <i name="SIGMA">      0.10000000</i>
  <i type="logical" name="LWAVE"> F  </i>
  <i type="logical" name="LCHARG"> F  </i>
 </incar>
 <primitive_cell>
  <structure name="primitive_cell" >
   <crystal>
    <varray name="basis" >
     <v>      11.23999977       0.00000000       0.00000000 </v>
     <v>       0.00000000      11.23999977       0.00000000 </v>
     <v>       0.00000000       0.00000000      11.23999977 </v>
    </varray>
    <i name="volume">   1420.03453724 </i>
    <varray name="rec_basis" >
     <v>       0.08896797       0.00000000       0.00000000 </v>
     <v>       0.00000000       0.08896797       0.00000000 </v>
     <v>       0.00000000       0.00000000       0.08896797 </v>
    </varray>
   </crystal>
   <varray name="positions" >
    <v>       0.00000000       0.00000000       0.00000000 </v>
    <v>       0.25000000       0.00000000       0.25000000 </v>
    <v>       0.25000000       0.50000000       0.25000000 </v>
    <v>       0.50000000       0.50000000       0.00000000 </v>
    <v>       0.50000000       0.25000000       0.75000004 </v>
    <v>       0.00000000       0.50000000       0.50000000 </v>
    <v>       0.50000000       0.75000004       0.75000004 </v>
    <v>       0.00000000       0.25000000       0.25000000 </v>
    <v>       0.75000004       0.75000004       0.00000000 </v>
    <v>       0.00000000       0.25000000       0.75000004 </v>
    <v>       0.75000004       0.25000000       0.50000000 </v>
    <v>       0.00000000       0.75000004       0.75000004 </v>
    <v>       0.25000000       0.50000000       0.75000004 </v>
    <v>       0.25000000       0.25000000       0.00000000 </v>
    <v>       0.50000000       0.25000000       0.25000000 </v>
    <v>       0.75000004       0.00000000       0.25000000 </v>
    <v>       0.75000004       0.25000000       0.00000000 </v>
    <v>       0.25000000       0.75000004       0.00000000 </v>
    <v>       0.25000000       0.25000000       0.50000000 </v>
    <v>       0.25000000       0.75000004       0.50000000 </v>
    <v>       0.25000000       0.25000000       0.25000000 </v>
    <v>       0.25000000       0.00000000       0.00000000 </v>
    <v>       0.00000000       0.25000000       0.00000000 </v>
    <v>       0.75000004       0.25000000       0.25000000 </v>
    <v>       0.75000004       0.00000000       0.00000000 </v>
    <v>       0.50000000       0.00000000       0.25000000 </v>
    <v>       0.00000000       0.50000000       0.25000000 </v>
    <v>       0.50000000       0.75000004       0.00000000 </v>
    <v>       0.00000000       0.00000000       0.75000004 </v>
    <v>       0.75000004       0.25000000       0.75000004 </v>
    <v>       0.75000004       0.00000000       0.50000000 </v>
    <v>       0.50000000       0.25000000       0.50000000 </v>
    <v>       0.50000000       0.00000000       0.75000004 </v>
    <v>       0.00000000       0.00000000       0.25000000 </v>
    <v>       0.50000000       0.25000000       0.00000000 </v>
    <v>       0.25000000       0.75000004       0.25000000 </v>
    <v>       0.25000000       0.50000000       0.00000000 </v>
    <v>       0.00000000       0.75000004       0.00000000 </v>
    <v>       0.75000004       0.75000004       0.25000000 </v>
    <v>       0.75000004       0.50000000       0.00000000 </v>
    <v>       0.50000000       0.50000000       0.25000000 </v>
    <v>       0.25000000       0.25000000       0.75000004 </v>
    <v>       0.25000000       0.00000000       0.50000000 </v>
    <v>       0.00000000       0.25000000       0.50000000 </v>
    <v>       0.25000000       0.75000004       0.75000004 </v>
    <v>       0.25000000       0.50000000       0.50000000 </v>
    <v>       0.00000000       0.75000004       0.50000000 </v>
    <v>       0.00000000       0.50000000       0.75000004 </v>
    <v>       0.75000004       0.75000004       0.75000004 </v>
    <v>       0.75000004       0.50000000       0.50000000 </v>
    <v>       0.50000000       0.75000004       0.50000000 </v>
    <v>       0.50000000       0.50000000       0.75000004 </v>
    <v>       0.50000000       0.00000000       0.00000000 </v>
    <v>       0.00000000       0.50000000       0.00000000 </v>
    <v>       0.50000000       0.75000004       0.25000000 </v>
    <v>       0.25000000       0.00000000       0.75000004 </v>
    <v>       0.50000000       0.00000000       0.50000000 </v>
    <v>       0.75000004       0.00000000       0.75000004 </v>
    <v>       0.00000000       0.75000004       0.25000000 </v>
    <v>       0.75000004       0.50000000       0.25000000 </v>
    <v>       0.00000000       0.00000000       0.50000000 </v>
    <v>       0.50000000       0.50000000       0.50000000 </v>
    <v>       0.75000004       0.50000000       0.75000004 </v>
    <v>       0.75000004       0.75000004       0.50000000 </v>
   </varray>
  </structure>
  <varray name="primitive_index" >
   <v type="int" >        1 </v>
   <v type="int" >        2 </v>
   <v type="int" >        3 </v>
   <v type="int" >        4 </v>
   <v type="int" >        5 </v>
   <v type="int" >        6 </v>
   <v type="int" >        7 </v>
   <v type="int" >        8 </v>
   <v type="int" >        9 </v>
   <v type="int" >       10 </v>
   <v type="int" >       11 </v>
   <v type="int" >       12 </v>
   <v type="int" >       13 </v>
   <v type="int" >       14 </v>
   <v type="int" >       15 </v>
   <v type="int" >       16 </v>
   <v type="int" >       17 </v>
   <v type="int" >       18 </v>
   <v type="int" >       19 </v>
   <v type="int" >       20 </v>
   <v type="int" >       21 </v>
   <v type="int" >       22 </v>
   <v type="int" >       23 </v>
   <v type="int" >       24 </v>
   <v type="int" >       25 </v>
   <v type="int" >       26 </v>
   <v type="int" >       27 </v>
   <v type="int" >       28 </v>
   <v type="int" >       29 </v>
   <v type="int" >       30 </v>
   <v type="int" >       31 </v>
   <v type="int" >       32 </v>
   <v type="int" >       33 </v>
   <v type="int" >       34 </v>
   <v type="int" >       35 </v>
   <v type="int" >       36 </v>
   <v type="int" >       37 </v>
   <v type="int" >       38 </v>
   <v type="int" >       39 </v>
   <v type="int" >       40 </v>
   <v type="int" >       41 </v>
   <v type="int" >       42 </v>
   <v type="int" >       43 </v>
   <v type="int" >       44 </v>
   <v type="int" >       45 </v>
   <v type="int" >       46 </v>
   <v type="int" >       47 </v>
   <v type="int" >       48 </v>
   <v type="int" >       49 </v>
   <v type="int" >       50 </v>
   <v type="int" >       51 </v>
   <v type="int" >       52 </v>
   <v type="int" >       53 </v>
   <v type="int" >       54 </v>
   <v type="int" >       55 </v>
   <v type="int" >       56 </v>
   <v type="int" >       57 </v>
   <v type="int" >       58 </v>
   <v type="int" >       59 </v>
   <v type="int" >       60 </v>
   <v type="int" >       61 </v>
   <v type="int" >       62 </v>
   <v type="int" >       63 </v>
   <v type="int" >       64 </v>
  </varray>
 </primitive_cell>
 <kpoints>
  <generation param="Gamma">
   <v type="int" name="divisions">       3        3        3 </v>
   <v name="usershift">      0.00000000       0.00000000       0.00000000 </v>
   <v name="genvec1">      0.33333333       0.00000000       0.00000000 </v>
   <v name="genvec2">      0.00000000       0.33333333       0.00000000 </v>
   <v name="genvec3">      0.00000000       0.00000000       0.33333333 </v>
   <v name="shift">      0.00000000       0.00000000       0.00000000 </v>
  </generation>
  <varray name="kpointlist" >
   <v>       0.00000000       0.00000000       0.00000000 </v>
   <v>       0.33333333       0.00000000       0.00000000 </v>
   <v>       0.00000000       0.33333333       0.00000000 </v>
   <v>       0.00000000       0.00000000       0.33333333 </v>
   <v>       0.33333333       0.33333333       0.00000000 </v>
   <v>       0.00000000       0.33333333       0.33333333 </v>
   <v>       0.33333333       0.00000000       0.33333333 </v>
   <v>      -0.33333333       0.33333333       0.00000000 </v>
   <v>      -0.33333333       0.00000000       0.33333333 </v>
   <v>       0.00000000      -0.33333333       0.33333333 </v>
   <v>       0.33333333       0.33333333       0.33333333 </v>
   <v>      -0.33333333       0.33333333       0.33333333 </v>
   <v>      -0.33333333      -0.33333333       0.33333333 </v>
   <v>       0.33333333      -0.33333333       0.33333333 </v>
  </varray>
  <varray name="weights" >
   <v>       0.03703704 </v>
   <v>       0.07407407 </v>
   <v>       0.07407407 </v>
   <v>       0.07407407 </v>
   <v>       0.07407407 </v>
   <v>       0.07407407 </v>
   <v>       0.07407407 </v>
   <v>       0.07407407 </v>
   <v>       0.07407407 </v>
   <v>       0.07407407 </v>
   <v>       0.07407407 </v>
   <v>       0.07407407 </v>
   <v>       0.07407407 </v>
   <v>       0.07407407 </v>
  </varray>
 </kpoints>
 <parameters>
  <separator name="general" >
   <i type="string" name="SYSTEM">HECN</i>
   <i type="logical" name="LCOMPAT"> F  </i>
  </separator>
  <separator name="electronic" >
   <i type="string" name="PREC">normal</i>
   <i name="ENMAX">    400.00000000</i>
   <i name="ENAUG">    644.87300000</i>
   <i name="EDIFF">      0.00001000</i>
   <i type="int" name="IALGO">    68</i>
   <i type="int" name="IWAVPR">    11</i>
   <i type="int" name="NBANDS">   308</i>
   <i type="int" name="NBANDSLOW">    -1</i>
   <i type="int" name="NBANDSHIGH">    -1</i>
   <i name="NELECT">    492.00000000</i>
   <i type="int" name="TURBO">     0</i>
   <i type="int" name="IRESTART">     0</i>
   <i type="int" name="NREBOOT">     0</i>
   <i type="int" name="NMIN">     0</i>
   <i name="EREF">      0.00000000</i>
   <separator name="electronic smearing" >
    <i type="int" name="ISMEAR">     0</i>
    <i name="SIGMA">      0.10000000</i>
    <i name="KSPACING">      0.50000000</i>
    <i type="logical" name="KGAMMA"> T  </i>
    <i type="logical" name="KBLOWUP"> T  </i>
   </separator>
   <separator name="electronic projectors" >
    <i type="logical" name="LREAL"> F  </i>
    <v name="ROPT">      0.00000000      0.00000000      0.00000000      0.00000000      0.00000000      0.00000000      0.00000000</v>
    <i type="int" name="LMAXPAW">  -100</i>
    <i type="int" name="LMAXMIX">     2</i>
    <i type="logical" name="NLSPLINE"> F  </i>
   </separator>
   <separator name="electronic startup" >
    <i type="int" name="ISTART">     0</i>
    <i type="int" name="ICHARG">     2</i>
    <i type="int" name="INIWAV">     1</i>
   </separator>
   <separator name="electronic spin" >
    <i type="int" name="ISPIN">     1</i>
    <i type="logical" name="LNONCOLLINEAR"> F  </i>
    <v name="MAGMOM">      1.00000000      1.00000000      1.00000000      1.00000000      1.00000000      1.00000000      1.00000000      1.00000000      1.00000000      1.00000000      1.00000000      1.00000000      1.00000000      1.00000000      1.00000000      1.00000000      1.00000000      1.00000000      1.00000000      1.00000000
      1.00000000      1.00000000      1.00000000      1.00000000      1.00000000      1.00000000      1.00000000      1.00000000      1.00000000      1.00000000      1.00000000      1.00000000      1.00000000      1.00000000      1.00000000      1.00000000      1.00000000      1.00000000      1.00000000      1.00000000
      1.00000000      1.00000000      1.00000000      1.00000000      1.00000000      1.00000000      1.00000000      1.00000000      1.00000000      1.00000000      1.00000000      1.00000000      1.00000000      1.00000000      1.00000000      1.00000000      1.00000000      1.00000000      1.00000000      1.00000000
      1.00000000      1.00000000      1.00000000      1.00000000</v>
    <i name="NUPDOWN">     -1.00000000</i>
    <i type="logical" name="LSORBIT"> F  </i>
    <v name="SAXIS">      0.00000000      0.00000000      1.00000000</v>
    <i type="logical" name="LSPIRAL"> F  </i>
    <v name="QSPIRAL">      0.00000000      0.00000000      0.00000000</v>
    <i type="logical" name="LZEROZ"> F  </i>
   </separator>
   <separator name="electronic exchange-correlation" >
    <i type="logical" name="LASPH"> F  </i>
   </separator>
   <separator name="electronic convergence" >
    <i type="int" name="NELM">    60</i>
    <i type="int" name="NELMDL">    -5</i>
    <i type="int" name="NELMIN">     2</i>
    <i name="ENINI">    400.00000000</i>
    <separator name="electronic convergence detail" >
     <i type="logical" name="LDIAG"> T  </i>
     <i type="logical" name="LSUBROT"> F  </i>
     <i name="WEIMIN">      0.00100000</i>
     <i name="EBREAK">      0.00000001</i>
     <i name="DEPER">      0.30000000</i>
     <i type="int" name="NRMM">     4</i>
     <i name="TIME">      0.40000000</i>
    </separator>
   </separator>
   <separator name="electronic mixer" >
    <i name="AMIX">      0.40000000</i>
    <i name="BMIX">      1.00000000</i>
    <i name="AMIN">      0.10000000</i>
    <i name="AMIX_MAG">      1.60000000</i>
    <i name="BMIX_MAG">      1.00000000</i>
    <separator name="electronic mixer details" >
     <i type="int" name="IMIX">     4</i>
     <i type="logical" name="MIXFIRST"> F  </i>
     <i type="int" name="MAXMIX">   -45</i>
     <i name="WC">    100.00000000</i>
     <i type="int" name="INIMIX">     1</i>
     <i type="int" name="MIXPRE">     1</i>
     <i type="int" name="MREMOVE">     5</i>
    </separator>
   </separator>
   <separator name="electronic dipolcorrection" >
    <i type="logical" name="LDIPOL"> F  </i>
    <i type="logical" name="LMONO"> F  </i>
    <i type="int" name="IDIPOL">     0</i>
    <i name="EPSILON">      1.00000000</i>
    <v name="DIPOL">   -100.00000000   -100.00000000   -100.00000000</v>
    <i name="EFIELD">      0.00000000</i>
    <i type="logical" name="LVACPOTAV"> F  </i>
   </separator>
  </separator>
  <separator name="grids" >
   <i type="int" name="NGX">    56</i>
   <i type="int" name="NGY">    56</i>
   <i type="int" name="NGZ">    56</i>
   <i type="int" name="NGXF">   112</i>
   <i type="int" name="NGYF">   112</i>
   <i type="int" name="NGZF">   112</i>
   <i type="logical" name="ADDGRID"> F  </i>
  </separator>
  <separator name="ionic" >
   <i type="int" name="NSW">   100</i>
   <i type="int" name="IBRION">     2</i>
   <i type="int" name="MDALGO">     0</i>
   <i type="int" name="ISIF">     3</i>
   <i name="PSTRESS">      0.00000000</i>
   <i name="EDIFFG">     -0.01000000</i>
   <i type="int" name="NFREE">     1</i>
   <i name="POTIM">      0.50000000</i>
   <i name="SMASS">     -3.00000000</i>
   <i name="SCALEE">      1.00000000</i>
  </separator>
  <separator name="ionic md" >
   <i name="TEBEG">      0.00010000</i>
   <i name="TEEND">      0.00010000</i>
   <i type="int" name="NBLOCK">     1</i>
   <i type="int" name="KBLOCK">   100</i>
   <i type="int" name="NPACO">   256</i>
   <i name="APACO">     10.00000000</i>
  </separator>
  <separator name="symmetry" >
   <i type="int" name="ISYM">     2</i>
   <i name="SYMPREC">      0.00001000</i>
  </separator>
  <separator name="dos" >
   <i type="int" name="LORBIT">     0</i>
   <v name="RWIGS">     -1.00000000     -1.00000000     -1.00000000     -1.00000000     -1.00000000     -1.00000000     -1.00000000</v>
   <i type="int" name="NEDOS">   301</i>
   <i name="EMIN">     10.00000000</i>
   <i name="EMAX">    -10.00000000</i>
   <i name="EFERMI">      0.00000000</i>
  </separator>
  <separator name="writing" >
   <i type="int" name="NWRITE">     2</i>
   <i type="logical" name="LWAVE"> F  </i>
   <i type="logical" name="LDOWNSAMPLE"> F  </i>
   <i type="logical" name="LCHARG"> F  </i>
   <i type="logical" name="LPARD"> F  </i>
   <i type="logical" name="LVTOT"> F  </i>
   <i type="logical" name="LVHAR"> F  </i>
   <i type="logical" name="LELF"> F  </i>
   <i type="logical" name="LOPTICS"> F  </i>
   <v name="STM">      0.00000000      0.00000000      0.00000000      0.00000000      0.00000000      0.00000000      0.00000000</v>
  </separator>
  <separator name="performance" >
   <i type="int" name="NPAR">    28</i>
   <i type="int" name="NSIM">     4</i>
   <i type="int" name="NBLK">    -1</i>
   <i type="logical" name="LPLANE"> T  </i>
   <i type="logical" name="LSCALAPACK"> T  </i>
   <i type="logical" name="LSCAAWARE"> F  </i>
   <i type="logical" name="LSCALU"> F  </i>
   <i type="logical" name="LASYNC"> F  </i>
   <i type="logical" name="LORBITALREAL"> F  </i>
  </separator>
  <separator name="miscellaneous" >
   <i type="int" name="IDIOT">     3</i>
   <i type="int" name="PHON_NSTRUCT">    -1</i>
   <i type="logical" name="LMUSIC"> F  </i>
   <v name="POMASS">     47.88000000     95.94000000     50.94100000     14.00100000     12.01100000     92.00000000    180.94800000</v>
   <v name="DARWINR">      0.00000000      0.00000000      0.00000000      0.00000000      0.00000000      0.00000000      0.00000000</v>
   <v name="DARWINV">      1.00000000      1.00000000      1.00000000      1.00000000      1.00000000      1.00000000      1.00000000</v>
   <i type="logical" name="LCORR"> T  </i>
  </separator>
  <i type="logical" name="GGA_COMPAT"> T  </i>
  <i type="logical" name="LBERRY"> F  </i>
  <i type="int" name="ICORELEVEL">     0</i>
  <i type="logical" name="LDAU"> F  </i>
  <i type="int" name="I_CONSTRAINED_M">     0</i>
  <separator name="electronic exchange-correlation" >
   <i type="string" name="GGA    ">PE</i>
   <i type="string" name="XC_C">1</i>
   <i type="int" name="VOSKOWN">     0</i>
   <i type="logical" name="LHFCALC"> F  </i>
   <i type="string" name="PRECFOCK"></i>
   <i type="logical" name="LSYMGRAD"> F  </i>
   <i type="logical" name="LHFONE"> F  </i>
   <i type="logical" name="LRHFCALC"> F  </i>
   <i type="logical" name="LTHOMAS"> F  </i>
   <i type="logical" name="LMODELHF"> F  </i>
   <i type="logical" name="LFOCKACE"> F  </i>
   <i name="ENCUT4O">     -1.00000000</i>
   <i type="int" name="EXXOEP">     0</i>
   <i type="int" name="FOURORBIT">     0</i>
   <i name="AEXX">      0.00000000</i>
   <i name="HFALPHA">      0.00000000</i>
   <i name="MCALPHA">      0.00000000</i>
   <i name="ALDAX">      1.00000000</i>
   <i name="AGGAX">      1.00000000</i>
   <i name="AMGGAX">      1.00000000</i>
   <i name="ALDAC">      1.00000000</i>
   <i name="AGGAC">      1.00000000</i>
   <i name="AMGGAC">      1.00000000</i>
   <i type="int" name="NKREDX">     1</i>
   <i type="int" name="NKREDY">     1</i>
   <i type="int" name="NKREDZ">     1</i>
   <i type="logical" name="SHIFTRED"> F  </i>
   <i type="logical" name="ODDONLY"> F  </i>
   <i type="logical" name="EVENONLY"> F  </i>
   <i type="int" name="LMAXFOCK">     0</i>
   <i type="int" name="NMAXFOCKAE">     0</i>
   <i type="logical" name="LFOCKAEDFT"> F  </i>
   <i name="HFSCREEN">      0.00000000</i>
   <i name="HFSCREENC">      0.00000000</i>
   <i type="int" name="NBANDSGWLOW">     0</i>
  </separator>
  <separator name="vdW DFT" >
   <i type="logical" name="LUSE_VDW"> F  </i>
   <i type="int" name="IVDW_NL">    -1</i>
   <i type="logical" name="LSPIN_VDW"> F  </i>
   <i name="ZAB_VDW">     -0.84910000</i>
   <i name="GAMMA_VDW">      1.39626340</i>
   <i name="ALPHA_VDW">      0.00000000</i>
   <i name="PARAM1">      0.12340000</i>
   <i name="PARAM2">      1.00000000</i>
   <i name="BPARAM">      6.30000000</i>
   <i name="CPARAM">      0.00930000</i>
  </separator>
  <separator name="model GW" >
   <i type="int" name="MODEL_GW">     0</i>
   <i name="MODEL_EPS0">     13.31282379</i>
   <i name="MODEL_ALPHA">      1.00000000</i>
  </separator>
  <separator name="linear response parameters" >
   <i type="logical" name="LEPSILON"> F  </i>
   <i type="logical" name="LRPA"> F  </i>
   <i type="logical" name="LNABLA"> F  </i>
   <i type="logical" name="LVEL"> F  </i>
   <i name="CSHIFT">      0.10000000</i>
   <i name="OMEGAMAX">     -1.00000000</i>
   <i name="DEG_THRESHOLD">      0.00200000</i>
   <i name="RTIME">     -0.10000000</i>
   <i name="WPLASMAI">      0.00000000</i>
   <v name="DFIELD">      0.00000000      0.00000000      0.00000000</v>
   <v name="WPLASMA">      0.00000000      0.00000000      0.00000000      0.00000000      0.00000000      0.00000000      0.00000000      0.00000000      0.00000000</v>
  </separator>
  <separator name="orbital magnetization" >
   <i type="logical" name="NUCIND"> F  </i>
   <v name="MAGPOS">      0.00000000      0.00000000      0.00000000</v>
   <i type="logical" name="LNICSALL"> T  </i>
   <i type="logical" name="ORBITALMAG"> F  </i>
   <i type="logical" name="LMAGBLOCH"> F  </i>
   <i type="logical" name="LCHIMAG"> F  </i>
   <i type="logical" name="LGAUGE"> T  </i>
   <i type="int" name="MAGATOM">     0</i>
   <v name="MAGDIPOL">      0.00000000      0.00000000      0.00000000</v>
   <v name="AVECCONST">      0.00000000      0.00000000      0.00000000</v>
  </separator>
  <separator name="response functions" >
   <i type="logical" name="LALL_IN_ONE"> F  </i>
   <i type="int" name="IALL_IN_ONE">    -1</i>
   <i type="int" name="NBANDS_WAVE">    -1</i>
   <i type="logical" name="LFINITE_TEMPERATURE"> F  </i>
   <i type="logical" name="LADDER"> F  </i>
   <i type="logical" name="LRPAFORCE"> F  </i>
   <i type="logical" name="LFXC"> F  </i>
   <i type="logical" name="LHARTREE"> T  </i>
   <i type="int" name="IBSE">     0</i>
   <v type="int" name="KPOINT">    -1     0     0     0</v>
   <i type="logical" name="LTCTC"> F  </i>
   <i type="logical" name="LTCTE"> F  </i>
   <i type="logical" name="LTETE"> F  </i>
   <i type="logical" name="LTRIPLET"> F  </i>
   <i type="logical" name="LFXCEPS"> F  </i>
   <i type="logical" name="LFXHEG"> F  </i>
   <i type="int" name="NATURALO">     2</i>
   <i type="logical" name="LHOLEGF"> F  </i>
   <i type="logical" name="L2ORDER"> F  </i>
   <i type="logical" name="LDMP1"> F  </i>
   <i type="logical" name="LMP2LT"> F  </i>
   <i type="logical" name="LSMP2LT"> F  </i>
   <i type="logical" name="LGWLF"> F  </i>
   <i name="ENCUTGW">     -1.60000002</i>
   <i name="ENCUTGWSOFT">     -1.60000002</i>
   <i name="ENCUTLF">     -1.00000000</i>
   <i type="logical" name="ESF_SPLINES"> F  </i>
   <i name="ESF_CONV">      0.01000000</i>
   <i type="int" name="ESF_NINTER">    15</i>
   <i type="int" name="LMAXMP2">    -1</i>
   <i name="SCISSOR">      0.00000000</i>
   <i type="int" name="NOMEGA">     0</i>
   <i type="int" name="NOMEGAR">     0</i>
   <i type="int" name="NBANDSGW">    -1</i>
   <i type="int" name="NBANDSO">    -1</i>
   <i type="int" name="NBANDSV">    -1</i>
   <i type="int" name="NELMGW">     1</i>
   <i type="int" name="NELMHF">     1</i>
   <i type="int" name="DIM">     3</i>
   <i type="int" name="IESPILON">     4</i>
   <i type="int" name="ANTIRES">     0</i>
   <i name="OMEGAMAX">    -30.00000000</i>
   <i name="OMEGAMIN">    -30.00000000</i>
   <i name="OMEGATL">   -200.00000000</i>
   <i type="int" name="OMEGAGRID">     0</i>
   <i name="CSHIFT">     -0.10000000</i>
   <i type="logical" name="LSELFENERGY"> F  </i>
   <i type="logical" name="LSPECTRAL"> F  </i>
   <i type="logical" name="LSPECTRALGW"> F  </i>
   <i type="logical" name="LSINGLES"> F  </i>
   <i type="logical" name="LFERMIGW"> F  </i>
   <i type="logical" name="ODDONLYGW"> F  </i>
   <i type="logical" name="EVENONLYGW"> F  </i>
   <i type="int" name="NKREDLFX">     1</i>
   <i type="int" name="NKREDLFY">     1</i>
   <i type="int" name="NKREDLFZ">     1</i>
   <i type="int" name="MAXMEM">  2800</i>
   <i type="int" name="TELESCOPE">     0</i>
   <i type="int" name="NTAUPAR">    -1</i>
   <i type="int" name="NOMEGAPAR">    -1</i>
   <i name="DAMP_NEWTON">      0.80000001</i>
   <i name="LAMBDA">      1.00000000</i>
  </separator>
  <separator name="External order field" >
   <i name="OFIELD_KAPPA">      0.00000000</i>
   <v name="OFIELD_K">      0.00000000      0.00000000      0.00000000</v>
   <i name="OFIELD_Q6_NEAR">      0.00000000</i>
   <i name="OFIELD_Q6_FAR">      0.00000000</i>
   <i name="OFIELD_A">      0.00000000</i>
  </separator>
  <separator name="optional k-points parameters" >
   <i type="int" name="KPOINTS_OPT_MODE">     1</i>
   <i type="logical" name="LKPOINTS_OPT"> F  </i>
  </separator>
  <separator name="solvation model" >
   <i type="logical" name="LSOL"> F  </i>
  </separator>
 </parameters>
 <atominfo>
  <atoms>      64 </atoms>
  <types>       7 </types>
  <array name="atoms" >
   <dimension dim="1">ion</dimension>
   <field type="string">element</field>
   <field type="int">atomtype</field>
   <set>
    <rc><c>Ti</c><c>   1</c></rc>
    <rc><c>Ti</c><c>   1</c></rc>
    <rc><c>Ti</c><c>   1</c></rc>
    <rc><c>Ti</c><c>   1</c></rc>
    <rc><c>Ti</c><c>   1</c></rc>
    <rc><c>Ti</c><c>   1</c></rc>
    <rc><c>Ti</c><c>   1</c></rc>
    <rc><c>Mo</c><c>   2</c></rc>
    <rc><c>Mo</c><c>   2</c></rc>
    <rc><c>Mo</c><c>   2</c></rc>
    <rc><c>Mo</c><c>   2</c></rc>
    <rc><c>Mo</c><c>   2</c></rc>
    <rc><c>Mo</c><c>   2</c></rc>
    <rc><c>V </c><c>   3</c></rc>
    <rc><c>V </c><c>   3</c></rc>
    <rc><c>V </c><c>   3</c></rc>
    <rc><c>V </c><c>   3</c></rc>
    <rc><c>V </c><c>   3</c></rc>
    <rc><c>V </c><c>   3</c></rc>
    <rc><c>V </c><c>   3</c></rc>
    <rc><c>N </c><c>   4</c></rc>
    <rc><c>N </c><c>   4</c></rc>
    <rc><c>N </c><c>   4</c></rc>
    <rc><c>N </c><c>   4</c></rc>
    <rc><c>N </c><c>   4</c></rc>
    <rc><c>N </c><c>   4</c></rc>
    <rc><c>N </c><c>   4</c></rc>
    <rc><c>N </c><c>   4</c></rc>
    <rc><c>N </c><c>   4</c></rc>
    <rc><c>N </c><c>   4</c></rc>
    <rc><c>N </c><c>   4</c></rc>
    <rc><c>N </c><c>   4</c></rc>
    <rc><c>N </c><c>   4</c></rc>
    <rc><c>C </c><c>   5</c></rc>
    <rc><c>C </c><c>   5</c></rc>
    <rc><c>C </c><c>   5</c></rc>
    <rc><c>C </c><c>   5</c></rc>
    <rc><c>C </c><c>   5</c></rc>
    <rc><c>C </c><c>   5</c></rc>
    <rc><c>C </c><c>   5</c></rc>
    <rc><c>C </c><c>   5</c></rc>
    <rc><c>C </c><c>   5</c></rc>
    <rc><c>C </c><c>   5</c></rc>
    <rc><c>C </c><c>   5</c></rc>
    <rc><c>C </c><c>   5</c></rc>
    <rc><c>C </c><c>   5</c></rc>
    <rc><c>C </c><c>   5</c></rc>
    <rc><c>C </c><c>   5</c></rc>
    <rc><c>C </c><c>   5</c></rc>
    <rc><c>C </c><c>   5</c></rc>
    <rc><c>C </c><c>   5</c></rc>
    <rc><c>C </c><c>   5</c></rc>
    <rc><c>Nb</c><c>   6</c></rc>
    <rc><c>Nb</c><c>   6</c></rc>
    <rc><c>Nb</c><c>   6</c></rc>
    <rc><c>Nb</c><c>   6</c></rc>
    <rc><c>Nb</c><c>   6</c></rc>
    <rc><c>Nb</c><c>   6</c></rc>
    <rc><c>Ta</c><c>   7</c></rc>
    <rc><c>Ta</c><c>   7</c></rc>
    <rc><c>Ta</c><c>   7</c></rc>
    <rc><c>Ta</c><c>   7</c></rc>
    <rc><c>Ta</c><c>   7</c></rc>
    <rc><c>Ta</c><c>   7</c></rc>
   </set>
  </array>
  <array name="atomtypes" >
   <dimension dim="1">type</dimension>
   <field type="int">atomspertype</field>
   <field type="string">element</field>
   <field>mass</field>
   <field>valence</field>
   <field type="string">pseudopotential</field>
   <set>
    <rc><c>   7</c><c>Ti</c><c>     47.88000000</c><c>     10.00000000</c><c> PAW_PBE Ti_pv 07Sep2000                </c></rc>
    <rc><c>   6</c><c>Mo</c><c>     95.94000000</c><c>     12.00000000</c><c> PAW_PBE Mo_pv 08Apr2002                </c></rc>
    <rc><c>   7</c><c>V </c><c>     50.94100000</c><c>     11.00000000</c><c> PAW_PBE V_pv 07Sep2000                 </c></rc>
    <rc><c>  13</c><c>N </c><c>     14.00100000</c><c>      5.00000000</c><c> PAW_PBE N 08Apr2002                    </c></rc>
    <rc><c>  19</c><c>C </c><c>     12.01100000</c><c>      4.00000000</c><c> PAW_PBE C 08Apr2002                    </c></rc>
    <rc><c>   6</c><c>Nb</c><c>     92.00000000</c><c>     11.00000000</c><c> PAW_PBE Nb_pv 08Apr2002                </c></rc>
    <rc><c>   6</c><c>Ta</c><c>    180.94800000</c><c>     11.00000000</c><c> PAW_PBE Ta_pv 07Sep2000                </c></rc>
   </set>
  </array>
 </atominfo>
 <structure name="initialpos" >
  <crystal>
   <varray name="basis" >
    <v>      11.23999977       0.00000000       0.00000000 </v>
    <v>       0.00000000      11.23999977       0.00000000 </v>
    <v>       0.00000000       0.00000000      11.23999977 </v>
   </varray>
   <i name="volume">   1420.03453724 </i>
   <varray name="rec_basis" >
    <v>       0.08896797       0.00000000       0.00000000 </v>
    <v>       0.00000000       0.08896797       0.00000000 </v>
    <v>       0.00000000       0.00000000       0.08896797 </v>
   </varray>
  </crystal>
  <varray name="positions" >
   <v>       0.00000000       0.00000000       0.00000000 </v>
   <v>       0.25000000       0.00000000       0.25000000 </v>
   <v>       0.25000000       0.50000000       0.25000000 </v>
   <v>       0.50000000       0.50000000       0.00000000 </v>
   <v>       0.50000000       0.25000000       0.75000004 </v>
   <v>       0.00000000       0.50000000       0.50000000 </v>
   <v>       0.50000000       0.75000004       0.75000004 </v>
   <v>       0.00000000       0.25000000       0.25000000 </v>
   <v>       0.75000004       0.75000004       0.00000000 </v>
   <v>       0.00000000       0.25000000       0.75000004 </v>
   <v>       0.75000004       0.25000000       0.50000000 </v>
   <v>       0.00000000       0.75000004       0.75000004 </v>
   <v>       0.25000000       0.50000000       0.75000004 </v>
   <v>       0.25000000       0.25000000       0.00000000 </v>
   <v>       0.50000000       0.25000000       0.25000000 </v>
   <v>       0.75000004       0.00000000       0.25000000 </v>
   <v>       0.75000004       0.25000000       0.00000000 </v>
   <v>       0.25000000       0.75000004       0.00000000 </v>
   <v>       0.25000000       0.25000000       0.50000000 </v>
   <v>       0.25000000       0.75000004       0.50000000 </v>
   <v>       0.25000000       0.25000000       0.25000000 </v>
   <v>       0.25000000       0.00000000       0.00000000 </v>
   <v>       0.00000000       0.25000000       0.00000000 </v>
   <v>       0.75000004       0.25000000       0.25000000 </v>
   <v>       0.75000004       0.00000000       0.00000000 </v>
   <v>       0.50000000       0.00000000       0.25000000 </v>
   <v>       0.00000000       0.50000000       0.25000000 </v>
   <v>       0.50000000       0.75000004       0.00000000 </v>
   <v>       0.00000000       0.00000000       0.75000004 </v>
   <v>       0.75000004       0.25000000       0.75000004 </v>
   <v>       0.75000004       0.00000000       0.50000000 </v>
   <v>       0.50000000       0.25000000       0.50000000 </v>
   <v>       0.50000000       0.00000000       0.75000004 </v>
   <v>       0.00000000       0.00000000       0.25000000 </v>
   <v>       0.50000000       0.25000000       0.00000000 </v>
   <v>       0.25000000       0.75000004       0.25000000 </v>
   <v>       0.25000000       0.50000000       0.00000000 </v>
   <v>       0.00000000       0.75000004       0.00000000 </v>
   <v>       0.75000004       0.75000004       0.25000000 </v>
   <v>       0.75000004       0.50000000       0.00000000 </v>
   <v>       0.50000000       0.50000000       0.25000000 </v>
   <v>       0.25000000       0.25000000       0.75000004 </v>
   <v>       0.25000000       0.00000000       0.50000000 </v>
   <v>       0.00000000       0.25000000       0.50000000 </v>
   <v>       0.25000000       0.75000004       0.75000004 </v>
   <v>       0.25000000       0.50000000       0.50000000 </v>
   <v>       0.00000000       0.75000004       0.50000000 </v>
   <v>       0.00000000       0.50000000       0.75000004 </v>
   <v>       0.75000004       0.75000004       0.75000004 </v>
   <v>       0.75000004       0.50000000       0.50000000 </v>
   <v>       0.50000000       0.75000004       0.50000000 </v>
   <v>       0.50000000       0.50000000       0.75000004 </v>
   <v>       0.50000000       0.00000000       0.00000000 </v>
   <v>       0.00000000       0.50000000       0.00000000 </v>
   <v>       0.50000000       0.75000004       0.25000000 </v>
   <v>       0.25000000       0.00000000       0.75000004 </v>
   <v>       0.50000000       0.00000000       0.50000000 </v>
   <v>       0.75000004       0.00000000       0.75000004 </v>
   <v>       0.00000000       0.75000004       0.25000000 </v>
   <v>       0.75000004       0.50000000       0.25000000 </v>
   <v>       0.00000000       0.00000000       0.50000000 </v>
   <v>       0.50000000       0.50000000       0.50000000 </v>
   <v>       0.75000004       0.50000000       0.75000004 </v>
   <v>       0.75000004       0.75000004       0.50000000 </v>
  </varray>
 </structure>
 <calculation>
  <scstep>
   <time name="dav">   60.76   61.45</time>
   <time name="total">   60.82   61.52</time>
   <energy>
    <i name="alphaZ">   2015.68777891 </i>
    <i name="ewald"> -30612.22792863 </i>
    <i name="hartreedc"> -10343.90720874 </i>
    <i name="XCdc">   1386.38358330 </i>
    <i name="pawpsdc">  27420.32841331 </i>
    <i name="pawaedc"> -26972.94209103 </i>
    <i name="eentropy">     -0.14947915 </i>
    <i name="bandstr">  -1156.55140875 </i>
    <i name="atom">  43020.31474387 </i>
    <i name="e_fr_energy">   4756.93640307 </i>
    <i name="e_wo_entrp">   4757.08588222 </i>
    <i name="e_0_energy">   4757.01114265 </i>
   </energy>
  </scstep>
  <scstep>
   <time name="dav">   54.36   55.39</time>
   <time name="total">   54.36   55.39</time>
   <energy>
    <i name="e_fr_energy">    230.56085855 </i>
    <i name="e_wo_entrp">    230.92833596 </i>
    <i name="e_0_energy">    230.74459725 </i>
   </energy>
  </scstep>
  <scstep>
   <time name="dav">   78.17   78.93</time>
   <time name="total">   78.17   78.93</time>
   <energy>
    <i name="e_fr_energy">   -517.59135440 </i>
    <i name="e_wo_entrp">   -517.31796868 </i>
    <i name="e_0_energy">   -517.45466154 </i>
   </energy>
  </scstep>
  <scstep>
   <time name="dav">  112.00  113.91</time>
   <time name="total">  112.01  113.91</time>
   <energy>
    <i name="e_fr_energy">   -613.59739351 </i>
    <i name="e_wo_entrp">   -613.34001635 </i>
    <i name="e_0_energy">   -613.46870493 </i>
   </energy>
  </scstep>
  <scstep>
   <time name="dav">   78.19   78.81</time>
   <time name="total">   78.62   79.26</time>
   <energy>
    <i name="e_fr_energy">   -623.21326932 </i>
    <i name="e_wo_entrp">   -622.93892467 </i>
    <i name="e_0_energy">   -623.07609700 </i>
   </energy>
  </scstep>
  <scstep>
   <time name="diag">    2.30    2.33</time>
   <time name="diis">   52.36   53.33</time>
   <time name="orth">    0.57    0.58</time>
   <time name="total">   55.70   56.72</time>
   <energy>
    <i name="e_fr_energy">   -586.57912990 </i>
    <i name="e_wo_entrp">   -586.24679380 </i>
    <i name="e_0_energy">   -586.41296185 </i>
   </energy>
  </scstep>
  <scstep>
   <time name="diag">    2.25    2.29</time>
   <time name="diis">   53.37   54.02</time>
   <time name="orth">    0.57    0.57</time>
   <time name="total">   56.68   57.38</time>
   <energy>
    <i name="e_fr_energy">   -427.22757609 </i>
    <i name="e_wo_entrp">   -426.81743441 </i>
    <i name="e_0_energy">   -427.02250525 </i>
   </energy>
  </scstep>
  <scstep>
   <time name="diag">    2.26    2.28</time>
   <time name="diis">   54.94   55.73</time>
   <time name="orth">    0.58    0.59</time>
   <time name="total">   58.26   59.07</time>
   <energy>
    <i name="e_fr_energy">   -460.62920014 </i>
    <i name="e_wo_entrp">   -460.30555278 </i>
    <i name="e_0_energy">   -460.46737646 </i>
   </energy>
  </scstep>
  <scstep>
   <time name="diag">    2.24    2.26</time>
   <time name="diis">   55.66   56.47</time>
   <time name="orth">    0.61    0.61</time>
   <time name="total">   58.98   59.82</time>
   <energy>
    <i name="e_fr_energy">   -452.10190711 </i>
    <i name="e_wo_entrp">   -451.61484513 </i>
    <i name="e_0_energy">   -451.85837612 </i>
   </energy>
  </scstep>
  <scstep>
   <time name="diag">    2.25    2.27</time>
   <time name="diis">   52.28   52.97</time>
   <time name="orth">    0.66    0.67</time>
   <time name="total">   55.67   56.39</time>
   <energy>
    <i name="e_fr_energy">   -446.54190394 </i>
    <i name="e_wo_entrp">   -446.06907940 </i>
    <i name="e_0_energy">   -446.30549167 </i>
   </energy>
  </scstep>
  <scstep>
   <time name="diag">    2.21    2.28</time>
   <time name="diis">   54.76   55.36</time>
   <time name="orth">    0.57    0.57</time>
   <time name="total">   58.02   58.69</time>
   <energy>
    <i name="e_fr_energy">   -443.69466692 </i>
    <i name="e_wo_entrp">   -443.18430280 </i>
    <i name="e_0_energy">   -443.43948486 </i>
   </energy>
  </scstep>
  <scstep>
   <time name="diag">    2.36    2.38</time>
   <time name="diis">   53.51   54.11</time>
   <time name="orth">    0.58    0.58</time>
   <time name="total">   56.96   57.59</time>
   <energy>
    <i name="e_fr_energy">   -440.39776330 </i>
    <i name="e_wo_entrp">   -439.81690241 </i>
    <i name="e_0_energy">   -440.10733285 </i>
   </energy>
  </scstep>
  <scstep>
   <time name="diag">    2.28    2.29</time>
   <time name="diis">   53.37   53.97</time>
   <time name="orth">    0.56    0.57</time>
   <time name="total">   56.69   57.32</time>
   <energy>
    <i name="e_fr_energy">   -441.93425512 </i>
    <i name="e_wo_entrp">   -441.41286353 </i>
    <i name="e_0_energy">   -441.67355932 </i>
   </energy>
  </scstep>
  <scstep>
   <time name="diag">    2.26    2.29</time>
   <time name="diis">   55.90   56.67</time>
   <time name="orth">    0.57    0.57</time>
   <time name="total">   59.23   60.03</time>
   <energy>
    <i name="e_fr_energy">   -441.49444195 </i>
    <i name="e_wo_entrp">   -440.95937525 </i>
    <i name="e_0_energy">   -441.22690860 </i>
   </energy>
  </scstep>
  <scstep>
   <time name="diag">    2.30    2.32</time>
   <time name="diis">   56.98   57.62</time>
   <time name="orth">    0.57    0.58</time>
   <time name="total">   60.35   61.02</time>
   <energy>
    <i name="e_fr_energy">   -441.45966958 </i>
    <i name="e_wo_entrp">   -440.92220594 </i>
    <i name="e_0_energy">   -441.19093776 </i>
   </energy>
  </scstep>
  <scstep>
   <time name="diag">    2.30    2.32</time>
   <time name="diis">   53.37   53.93</time>
   <time name="orth">    0.60    0.61</time>
   <time name="total">   56.77   57.36</time>
   <energy>
    <i name="e_fr_energy">   -441.34112790 </i>
    <i name="e_wo_entrp">   -440.80571509 </i>
    <i name="e_0_energy">   -441.07342150 </i>
   </energy>
  </scstep>
  <scstep>
   <time name="diag">    2.28    2.30</time>
   <time name="diis">   56.11   56.75</time>
   <time name="orth">    0.56    0.59</time>
   <time name="total">   59.44   60.13</time>
   <energy>
    <i name="e_fr_energy">   -441.34080417 </i>
    <i name="e_wo_entrp">   -440.79727438 </i>
    <i name="e_0_energy">   -441.06903928 </i>
   </energy>
  </scstep>
  <scstep>
   <time name="diag">    2.24    2.26</time>
   <time name="diis">   54.75   55.39</time>
   <time name="orth">    0.58    0.58</time>
   <time name="total">   58.08   58.75</time>
   <energy>
    <i name="e_fr_energy">   -440.49744164 </i>
    <i name="e_wo_entrp">   -439.90066399 </i>
    <i name="e_0_energy">   -440.19905281 </i>
   </energy>
  </scstep>
  <scstep>
   <time name="diag">    2.23    2.25</time>
   <time name="diis">   55.90   56.70</time>
   <time name="orth">    0.59    0.59</time>
   <time name="total">   59.21   60.03</time>
   <energy>
    <i name="e_fr_energy">   -440.47284899 </i>
    <i name="e_wo_entrp">   -439.88822561 </i>
    <i name="e_0_energy">   -440.18053730 </i>
   </energy>
  </scstep>
  <scstep>
   <time name="diag">    2.28    2.33</time>
   <time name="diis">   55.92   56.54</time>
   <time name="orth">    0.58    0.58</time>
   <time name="total">   59.27   59.96</time>
   <energy>
    <i name="e_fr_energy">   -440.50975640 </i>
    <i name="e_wo_entrp">   -439.90829590 </i>
    <i name="e_0_energy">   -440.20902615 </i>
   </energy>
  </scstep>
  <scstep>
   <time name="diag">    2.24    2.25</time>
   <time name="diis">   53.27   53.87</time>
   <time name="orth">    0.56    0.56</time>
   <time name="total">   56.57   57.18</time>
   <energy>
    <i name="e_fr_energy">   -440.53643100 </i>
    <i name="e_wo_entrp">   -439.91441401 </i>
    <i name="e_0_energy">   -440.22542251 </i>
   </energy>
  </scstep>
  <scstep>
   <time name="diag">    2.31    2.33</time>
   <time name="diis">   55.70   56.26</time>
   <time name="orth">    0.58    0.59</time>
   <time name="total">   59.09   59.67</time>
   <energy>
    <i name="e_fr_energy">   -440.60363498 </i>
    <i name="e_wo_entrp">   -439.97210602 </i>
    <i name="e_0_energy">   -440.28787050 </i>
   </energy>
  </scstep>
  <scstep>
   <time name="diag">    2.20    2.22</time>
   <time name="diis">   54.36   54.74</time>
   <time name="orth">    0.56    0.56</time>
   <time name="total">   57.62   58.02</time>
   <energy>
    <i name="e_fr_energy">   -440.60436929 </i>
    <i name="e_wo_entrp">   -439.97826493 </i>
    <i name="e_0_energy">   -440.29131711 </i>
   </energy>
  </scstep>
  <scstep>
   <time name="diag">    2.25    2.28</time>
   <time name="diis">   54.93   55.29</time>
   <time name="orth">    0.57    0.57</time>
   <time name="total">   58.22   58.65</time>
   <energy>
    <i name="e_fr_energy">   -440.58901156 </i>
    <i name="e_wo_entrp">   -439.96553008 </i>
    <i name="e_0_energy">   -440.27727082 </i>
   </energy>
  </scstep>
  <scstep>
   <time name="diag">    2.25    2.26</time>
   <time name="diis">   55.29   55.65</time>
   <time name="orth">    0.56    0.57</time>
   <time name="total">   58.61   58.98</time>
   <energy>
    <i name="e_fr_energy">   -440.63762608 </i>
    <i name="e_wo_entrp">   -440.01733743 </i>
    <i name="e_0_energy">   -440.32748175 </i>
   </energy>
  </scstep>
  <scstep>
   <time name="diag">    2.29    2.30</time>
   <time name="diis">   57.57   58.13</time>
   <time name="orth">    0.55    0.58</time>
   <time name="total">   60.92   61.51</time>
   <energy>
    <i name="e_fr_energy">   -440.68671173 </i>
    <i name="e_wo_entrp">   -440.05225223 </i>
    <i name="e_0_energy">   -440.36948198 </i>
   </energy>
  </scstep>
  <scstep>
   <time name="diag">    2.26    2.28</time>
   <time name="diis">   56.16   56.91</time>
   <time name="orth">    0.58    0.58</time>
   <time name="total">   59.50   60.28</time>
   <energy>
    <i name="e_fr_energy">   -440.72176062 </i>
    <i name="e_wo_entrp">   -440.08428848 </i>
    <i name="e_0_energy">   -440.40302455 </i>
   </energy>
  </scstep>
  <scstep>
   <time name="diag">    2.20    2.22</time>
   <time name="diis">   54.86   55.55</time>
   <time name="orth">    0.56    0.56</time>
   <time name="total">   58.13   58.83</time>
   <energy>
    <i name="e_fr_energy">   -440.73876053 </i>
    <i name="e_wo_entrp">   -440.10473641 </i>
    <i name="e_0_energy">   -440.42174847 </i>
   </energy>
  </scstep>
  <scstep>
   <time name="diag">    2.28    2.38</time>
   <time name="diis">   55.62   56.27</time>
   <time name="orth">    0.56    0.56</time>
   <time name="total">   58.96   59.71</time>
   <energy>
    <i name="e_fr_energy">   -440.76364495 </i>
    <i name="e_wo_entrp">   -440.12914639 </i>
    <i name="e_0_energy">   -440.44639567 </i>
   </energy>
  </scstep>
  <scstep>
   <time name="diag">    2.21    2.24</time>
   <time name="diis">   54.24   54.76</time>
   <time name="orth">    0.78    0.82</time>
   <time name="total">   57.73   58.32</time>
   <energy>
    <i name="e_fr_energy">   -440.78634394 </i>
    <i name="e_wo_entrp">   -440.15000084 </i>
    <i name="e_0_energy">   -440.46817239 </i>
   </energy>
  </scstep>
  <scstep>
   <time name="diag">    2.28    2.33</time>
   <time name="diis">   52.66   53.71</time>
   <time name="orth">    0.57    0.58</time>
   <time name="total">   55.98   57.15</time>
   <energy>
    <i name="e_fr_energy">   -440.80691613 </i>
    <i name="e_wo_entrp">   -440.16889199 </i>
    <i name="e_0_energy">   -440.48790406 </i>
   </energy>
  </scstep>
  <scstep>
   <time name="diag">    2.50    2.55</time>
   <time name="diis">   52.64   54.03</time>
   <time name="orth">    0.55    0.56</time>
   <time name="total">   56.19   57.64</time>
   <energy>
    <i name="e_fr_energy">   -440.82536414 </i>
    <i name="e_wo_entrp">   -440.18419548 </i>
    <i name="e_0_energy">   -440.50477981 </i>
   </energy>
  </scstep>
  <scstep>
   <time name="diag">    2.19    2.22</time>
   <time name="diis">   51.18   52.67</time>
   <time name="orth">    0.56    0.57</time>
   <time name="total">   54.45   55.98</time>
   <energy>
    <i name="e_fr_energy">   -440.83985553 </i>
    <i name="e_wo_entrp">   -440.19750719 </i>
    <i name="e_0_energy">   -440.51868136 </i>
   </energy>
  </scstep>
  <scstep>
   <time name="diag">    2.18    2.21</time>
   <time name="diis">   55.15   56.34</time>
   <time name="orth">    0.56    0.56</time>
   <time name="total">   58.40   59.62</time>
   <energy>
    <i name="e_fr_energy">   -440.85363058 </i>
    <i name="e_wo_entrp">   -440.21041060 </i>
    <i name="e_0_energy">   -440.53202059 </i>
   </energy>
  </scstep>
  <scstep>
   <time name="diag">    2.25    2.27</time>
   <time name="diis">   51.90   52.43</time>
   <time name="orth">    0.56    0.57</time>
   <time name="total">   55.24   55.78</time>
   <energy>
    <i name="e_fr_energy">   -440.86487915 </i>
    <i name="e_wo_entrp">   -440.21947451 </i>
    <i name="e_0_energy">   -440.54217683 </i>
   </energy>
  </scstep>
  <scstep>
   <time name="diag">    2.36    2.38</time>
   <time name="diis">   49.79   50.12</time>
   <time name="orth">    0.59    0.59</time>
   <time name="total">   53.24   53.60</time>
   <energy>
    <i name="e_fr_energy">   -440.87540535 </i>
    <i name="e_wo_entrp">   -440.22799395 </i>
    <i name="e_0_energy">   -440.55169965 </i>
   </energy>
  </scstep>
  <scstep>
   <time name="diag">    2.25    2.26</time>
   <time name="diis">   47.37   47.76</time>
   <time name="orth">    0.56    0.57</time>
   <time name="total">   50.71   51.11</time>
   <energy>
    <i name="e_fr_energy">   -440.88431966 </i>
    <i name="e_wo_entrp">   -440.23596558 </i>
    <i name="e_0_energy">   -440.56014262 </i>
   </energy>
  </scstep>
  <scstep>
   <time name="diag">    2.24    2.25</time>
   <time name="diis">   45.64   45.92</time>
   <time name="orth">    0.59    0.59</time>
   <time name="total">   48.97   49.26</time>
   <energy>
    <i name="e_fr_energy">   -440.89251136 </i>
    <i name="e_wo_entrp">   -440.24257794 </i>
    <i name="e_0_energy">   -440.56754465 </i>
   </energy>
  </scstep>
  <scstep>
   <time name="diag">    2.28    2.29</time>
   <time name="diis">   44.32   44.70</time>
   <time name="orth">    0.60    0.60</time>
   <time name="total">   47.73   48.13</time>
   <energy>
    <i name="e_fr_energy">   -440.89937221 </i>
    <i name="e_wo_entrp">   -440.24778273 </i>
    <i name="e_0_energy">   -440.57357747 </i>
   </energy>
  </scstep>
  <scstep>
   <time name="diag">    2.22    2.26</time>
   <time name="diis">   41.84   42.19</time>
   <time name="orth">    0.59    0.60</time>
   <time name="total">   45.19   45.58</time>
   <energy>
    <i name="e_fr_energy">   -440.90580348 </i>
    <i name="e_wo_entrp">   -440.25270649 </i>
    <i name="e_0_energy">   -440.57925498 </i>
   </energy>
  </scstep>
  <scstep>
   <time name="diag">    2.23    2.24</time>
   <time name="diis">   39.54   39.93</time>
   <time name="orth">    0.56    0.56</time>
   <time name="total">   42.83   43.23</time>
   <energy>
    <i name="e_fr_energy">   -440.91115379 </i>
    <i name="e_wo_entrp">   -440.25694903 </i>
    <i name="e_0_energy">   -440.58405141 </i>
   </energy>
  </scstep>
  <scstep>
   <time name="diag">    2.36    2.37</time>
   <time name="diis">   45.94   46.25</time>
   <time name="orth">    0.59    0.59</time>
   <time name="total">   49.40   49.73</time>
   <energy>
    <i name="e_fr_energy">   -440.91616179 </i>
    <i name="e_wo_entrp">   -440.26079389 </i>
    <i name="e_0_energy">   -440.58847784 </i>
   </energy>
  </scstep>
  <scstep>
   <time name="diag">    2.22    2.26</time>
   <time name="diis">   41.04   41.52</time>
   <time name="orth">    0.55    0.56</time>
   <time name="total">   44.32   44.85</time>
   <energy>
    <i name="e_fr_energy">   -440.92036913 </i>
    <i name="e_wo_entrp">   -440.26373501 </i>
    <i name="e_0_energy">   -440.59205207 </i>
   </energy>
  </scstep>
  <scstep>
   <time name="diag">    2.27    2.28</time>
   <time name="diis">   36.85   37.15</time>
   <time name="orth">    0.56    0.56</time>
   <time name="total">   40.20   40.50</time>
   <energy>
    <i name="e_fr_energy">   -440.92434735 </i>
    <i name="e_wo_entrp">   -440.26645397 </i>
    <i name="e_0_energy">   -440.59540066 </i>
   </energy>
  </scstep>
  <scstep>
   <time name="diag">    2.30    2.30</time>
   <time name="diis">   33.81   34.07</time>
   <time name="orth">    0.60    0.60</time>
   <time name="total">   37.22   37.49</time>
   <energy>
    <i name="e_fr_energy">   -440.92769309 </i>
    <i name="e_wo_entrp">   -440.26870363 </i>
    <i name="e_0_energy">   -440.59819836 </i>
   </energy>
  </scstep>
  <scstep>
   <time name="diag">    2.24    2.26</time>
   <time name="diis">   32.00   32.17</time>
   <time name="orth">    0.60    0.60</time>
   <time name="total">   35.36   35.55</time>
   <energy>
    <i name="e_fr_energy">   -440.93084609 </i>
    <i name="e_wo_entrp">   -440.27078330 </i>
    <i name="e_0_energy">   -440.60081469 </i>
   </energy>
  </scstep>
  <scstep>
   <time name="diag">    2.23    2.23</time>
   <time name="diis">   30.94   31.30</time>
   <time name="orth">    0.56    0.58</time>
   <time name="total">   34.24   34.64</time>
   <energy>
    <i name="e_fr_energy">   -440.93359089 </i>
    <i name="e_wo_entrp">   -440.27209525 </i>
    <i name="e_0_energy">   -440.60284307 </i>
   </energy>
  </scstep>
  <scstep>
   <time name="diag">    2.29    2.30</time>
   <time name="diis">   29.00   29.23</time>
   <time name="orth">    0.56    0.56</time>
   <time name="total">   32.36   32.61</time>
   <energy>
    <i name="e_fr_energy">   -440.93611121 </i>
    <i name="e_wo_entrp">   -440.27359564 </i>
    <i name="e_0_energy">   -440.60485342 </i>
   </energy>
  </scstep>
  <scstep>
   <time name="diag">    2.22    2.22</time>
   <time name="diis">   28.52   28.75</time>
   <time name="orth">    0.57    0.57</time>
   <time name="total">   31.81   32.05</time>
   <energy>
    <i name="e_fr_energy">   -440.93829523 </i>
    <i name="e_wo_entrp">   -440.27485619 </i>
    <i name="e_0_energy">   -440.60657571 </i>
   </energy>
  </scstep>
  <scstep>
   <time name="diag">    2.28    2.28</time>
   <time name="diis">   27.68   27.96</time>
   <time name="orth">    0.56    0.56</time>
   <time name="total">   31.03   31.32</time>
   <energy>
    <i name="e_fr_energy">   -440.94031670 </i>
    <i name="e_wo_entrp">   -440.27594661 </i>
    <i name="e_0_energy">   -440.60813165 </i>
   </energy>
  </scstep>
  <scstep>
   <time name="diag">    2.37    2.41</time>
   <time name="diis">   27.56   27.85</time>
   <time name="orth">    0.56    0.56</time>
   <time name="total">   31.00   31.33</time>
   <energy>
    <i name="e_fr_energy">   -440.94209666 </i>
    <i name="e_wo_entrp">   -440.27686803 </i>
    <i name="e_0_energy">   -440.60948234 </i>
   </energy>
  </scstep>
  <scstep>
   <time name="diag">    2.36    2.36</time>
   <time name="diis">   27.65   27.92</time>
   <time name="orth">    0.60    0.60</time>
   <time name="total">   31.14   31.43</time>
   <energy>
    <i name="e_fr_energy">   -440.94371815 </i>
    <i name="e_wo_entrp">   -440.27772389 </i>
    <i name="e_0_energy">   -440.61072102 </i>
   </energy>
  </scstep>
  <scstep>
   <time name="diag">    2.28    2.28</time>
   <time name="diis">   28.04   28.23</time>
   <time name="orth">    0.67    0.67</time>
   <time name="total">   31.50   31.70</time>
   <energy>
    <i name="e_fr_energy">   -440.94509177 </i>
    <i name="e_wo_entrp">   -440.27841306 </i>
    <i name="e_0_energy">   -440.61175242 </i>
   </energy>
  </scstep>
  <scstep>
   <time name="diag">    2.23    2.24</time>
   <time name="diis">   27.04   27.22</time>
   <time name="orth">    0.63    0.63</time>
   <time name="total">   30.41   30.61</time>
   <energy>
    <i name="e_fr_energy">   -440.94644045 </i>
    <i name="e_wo_entrp">   -440.27898208 </i>
    <i name="e_0_energy">   -440.61271126 </i>
   </energy>
  </scstep>
  <scstep>
   <time name="diag">    2.23    2.25</time>
   <time name="diis">   27.96   28.13</time>
   <time name="orth">    0.58    0.58</time>
   <time name="total">   31.29   31.48</time>
   <energy>
    <i name="e_fr_energy">   -440.94755863 </i>
    <i name="e_wo_entrp">   -440.27941553 </i>
    <i name="e_0_energy">   -440.61348708 </i>
   </energy>
  </scstep>
  <scstep>
   <time name="diag">    2.21    2.21</time>
   <time name="diis">   28.20   28.53</time>
   <time name="orth">    0.57    0.57</time>
   <time name="total">   31.50   31.82</time>
   <energy>
    <i name="e_fr_energy">   -440.94864060 </i>
    <i name="e_wo_entrp">   -440.27986657 </i>
    <i name="e_0_energy">   -440.61425359 </i>
   </energy>
  </scstep>
  <scstep>
   <time name="diag">    2.30    2.31</time>
   <time name="diis">   27.42   27.51</time>
   <time name="orth">    0.57    0.57</time>
   <time name="total">   30.80   30.90</time>
   <energy>
    <i name="e_fr_energy">   -440.94956904 </i>
    <i name="e_wo_entrp">   -440.28016137 </i>
    <i name="e_0_energy">   -440.61486521 </i>
   </energy>
  </scstep>
  <scstep>
   <time name="diag">    2.24    2.28</time>
   <time name="diis">   26.92   27.10</time>
   <time name="orth">    0.57    0.57</time>
   <time name="total">   30.26   30.47</time>
   <energy>
    <i name="e_fr_energy">   -440.95046233 </i>
    <i name="e_wo_entrp">   -440.28046659 </i>
    <i name="e_0_energy">   -440.61546446 </i>
   </energy>
  </scstep>
  <scstep>
   <time name="diag">    2.28    2.30</time>
   <time name="diis">   27.32   27.45</time>
   <time name="orth">    0.57    0.57</time>
   <time name="total">   30.68   30.84</time>
   <energy>
    <i name="e_fr_energy">   -440.95124949 </i>
    <i name="e_wo_entrp">   -440.28070308 </i>
    <i name="e_0_energy">   -440.61597628 </i>
   </energy>
  </scstep>
  <scstep>
   <time name="diag">    2.32    2.34</time>
   <time name="diis">   27.01   27.24</time>
   <time name="orth">    0.56    0.56</time>
   <time name="total">   29.92   30.16</time>
   <energy>
    <i name="alphaZ">   2015.68777891 </i>
    <i name="ewald"> -30612.22792863 </i>
    <i name="hartreedc">  -9544.58787496 </i>
    <i name="XCdc">   1360.00126511 </i>
    <i name="pawpsdc">  25444.46792817 </i>
    <i name="pawaedc"> -25048.38442062 </i>
    <i name="eentropy">     -0.67110359 </i>
    <i name="bandstr">  -7075.55235200 </i>
    <i name="atom">  43020.31474387 </i>
    <i name="e_fr_energy">   -440.95196374 </i>
    <i name="e_wo_entrp">   -440.28086015 </i>
    <i name="e_0_energy">   -440.61641195 </i>
   </energy>
  </scstep>
  <structure>
   <crystal>
    <varray name="basis" >
     <v>      11.23999977       0.00000000       0.00000000 </v>
     <v>       0.00000000      11.23999977       0.00000000 </v>
     <v>       0.00000000       0.00000000      11.23999977 </v>
    </varray>
    <i name="volume">   1420.03453724 </i>
    <varray name="rec_basis" >
     <v>       0.08896797       0.00000000       0.00000000 </v>
     <v>       0.00000000       0.08896797       0.00000000 </v>
     <v>       0.00000000       0.00000000       0.08896797 </v>
    </varray>
   </crystal>
   <varray name="positions" >
    <v>       0.00000000       0.00000000       0.00000000 </v>
    <v>       0.25000000       0.00000000       0.25000000 </v>
    <v>       0.25000000       0.50000000       0.25000000 </v>
    <v>       0.50000000       0.50000000       0.00000000 </v>
    <v>       0.50000000       0.25000000       0.75000004 </v>
    <v>       0.00000000       0.50000000       0.50000000 </v>
    <v>       0.50000000       0.75000004       0.75000004 </v>
    <v>       0.00000000       0.25000000       0.25000000 </v>
    <v>       0.75000004       0.75000004       0.00000000 </v>
    <v>       0.00000000       0.25000000       0.75000004 </v>
    <v>       0.75000004       0.25000000       0.50000000 </v>
    <v>       0.00000000       0.75000004       0.75000004 </v>
    <v>       0.25000000       0.50000000       0.75000004 </v>
    <v>       0.25000000       0.25000000       0.00000000 </v>
    <v>       0.50000000       0.25000000       0.25000000 </v>
    <v>       0.75000004       0.00000000       0.25000000 </v>
    <v>       0.75000004       0.25000000       0.00000000 </v>
    <v>       0.25000000       0.75000004       0.00000000 </v>
    <v>       0.25000000       0.25000000       0.50000000 </v>
    <v>       0.25000000       0.75000004       0.50000000 </v>
    <v>       0.25000000       0.25000000       0.25000000 </v>
    <v>       0.25000000       0.00000000       0.00000000 </v>
    <v>       0.00000000       0.25000000       0.00000000 </v>
    <v>       0.75000004       0.25000000       0.25000000 </v>
    <v>       0.75000004       0.00000000       0.00000000 </v>
    <v>       0.50000000       0.00000000       0.25000000 </v>
    <v>       0.00000000       0.50000000       0.25000000 </v>
    <v>       0.50000000       0.75000004       0.00000000 </v>
    <v>       0.00000000       0.00000000       0.75000004 </v>
    <v>       0.75000004       0.25000000       0.75000004 </v>
    <v>       0.75000004       0.00000000       0.50000000 </v>
    <v>       0.50000000       0.25000000       0.50000000 </v>
    <v>       0.50000000       0.00000000       0.75000004 </v>
    <v>       0.00000000       0.00000000       0.25000000 </v>
    <v>       0.50000000       0.25000000       0.00000000 </v>
    <v>       0.25000000       0.75000004       0.25000000 </v>
    <v>       0.25000000       0.50000000       0.00000000 </v>
    <v>       0.00000000       0.75000004       0.00000000 </v>
    <v>       0.75000004       0.75000004       0.25000000 </v>
    <v>       0.75000004       0.50000000       0.00000000 </v>
    <v>       0.50000000       0.50000000       0.25000000 </v>
    <v>       0.25000000       0.25000000       0.75000004 </v>
    <v>       0.25000000       0.00000000       0.50000000 </v>
    <v>       0.00000000       0.25000000       0.50000000 </v>
    <v>       0.25000000       0.75000004       0.75000004 </v>
    <v>       0.25000000       0.50000000       0.50000000 </v>
    <v>       0.00000000       0.75000004       0.50000000 </v>
    <v>       0.00000000       0.50000000       0.75000004 </v>
    <v>       0.75000004       0.75000004       0.75000004 </v>
    <v>       0.75000004       0.50000000       0.50000000 </v>
    <v>       0.50000000       0.75000004       0.50000000 </v>
    <v>       0.50000000       0.50000000       0.75000004 </v>
    <v>       0.50000000       0.00000000       0.00000000 </v>
    <v>       0.00000000       0.50000000       0.00000000 </v>
    <v>       0.50000000       0.75000004       0.25000000 </v>
    <v>       0.25000000       0.00000000       0.75000004 </v>
    <v>       0.50000000       0.00000000       0.50000000 </v>
    <v>       0.75000004       0.00000000       0.75000004 </v>
    <v>       0.00000000       0.75000004       0.25000000 </v>
    <v>       0.75000004       0.50000000       0.25000000 </v>
    <v>       0.00000000       0.00000000       0.50000000 </v>
    <v>       0.50000000       0.50000000       0.50000000 </v>
    <v>       0.75000004       0.50000000       0.75000004 </v>
    <v>       0.75000004       0.75000004       0.50000000 </v>
   </varray>
  </structure>
  <varray name="forces" >
   <v>      -0.05361022      -0.16674664       0.25614261 </v>
   <v>      -0.18243134      -0.09945390       0.22728861 </v>
   <v>       0.28985819       0.11421989      -0.01128590 </v>
   <v>      -0.02131021      -0.26545614      -0.00492886 </v>
   <v>      -0.24856475       0.21154748       0.23750270 </v>
   <v>       0.06964623      -0.10553908       0.31070976 </v>
   <v>      -0.05633725      -0.19679647      -0.20002620 </v>
   <v>      -0.01487242      -0.60599863       0.46446414 </v>
   <v>       0.48996816      -0.37730779      -0.02993441 </v>
   <v>       0.48774778       0.40775738      -0.48054442 </v>
   <v>       0.54216639       0.44345312      -0.03248642 </v>
   <v>       0.02281332      -0.40316849       0.08274043 </v>
   <v>      -0.06125301       0.02618203       0.04750735 </v>
   <v>       0.20388384       0.29912464      -0.28587381 </v>
   <v>      -0.00063926       0.24576764      -0.31945586 </v>
   <v>       0.26063140      -0.30055324      -0.05463790 </v>
   <v>      -0.24681213       0.27045132       0.03257584 </v>
   <v>      -0.35337265      -0.32796255      -0.05928551 </v>
   <v>      -0.36704864       0.02736234       0.29669448 </v>
   <v>      -0.03622123      -0.01371950       0.07179473 </v>
   <v>      -0.24031092      -0.03308965      -0.01962263 </v>
   <v>       0.28937305       0.01904836      -0.22414997 </v>
   <v>      -0.00599767       0.23398657       0.02131350 </v>
   <v>       0.20590885       0.64548357       0.22649353 </v>
   <v>      -0.28250610      -0.09607581      -0.43067344 </v>
   <v>      -0.12785182      -0.34869236      -0.03438881 </v>
   <v>      -0.51560257       0.47618276      -0.24673538 </v>
   <v>       0.12792646       0.31937555       0.21192998 </v>
   <v>      -0.03798242       0.02925789      -0.45881315 </v>
   <v>      -0.02822639       0.18894071      -0.18648225 </v>
   <v>       0.28845818      -0.44174500       0.35901712 </v>
   <v>       0.18156394       0.24957421       0.15839728 </v>
   <v>       0.04969637       0.02671302       0.02866606 </v>
   <v>       0.03326992      -0.34621575       0.54774113 </v>
   <v>       0.01297151      -0.44660198      -0.05918772 </v>
   <v>      -0.23701298       0.00658706      -0.03121703 </v>
   <v>      -0.37453368      -0.02045978      -0.15045541 </v>
   <v>      -0.22402823      -0.29057692       0.36557065 </v>
   <v>       0.21108319      -0.57023490       0.35995648 </v>
   <v>       0.31756357       0.18700587       0.04988185 </v>
   <v>       0.60115612       0.33362228       0.53753499 </v>
   <v>      -0.25495519      -0.15698130       0.01108128 </v>
   <v>      -0.26547831       0.03596903       0.30490787 </v>
   <v>      -0.28199042      -0.55172113      -0.01095766 </v>
   <v>      -0.16465773       0.16190306       0.02604489 </v>
   <v>       0.55621573      -0.03581019       0.13915734 </v>
   <v>      -0.59237657       0.54082530      -0.36960032 </v>
   <v>      -0.37313981      -0.02845880       0.32972486 </v>
   <v>       0.11045946      -0.17592454      -0.36616398 </v>
   <v>      -0.46028224       0.33212645      -0.04523627 </v>
   <v>       0.59383325      -0.20753670      -0.26763727 </v>
   <v>       0.42919902      -0.03424646      -0.54678106 </v>
   <v>       0.09978014       0.46797466       0.05589845 </v>
   <v>       0.04802895       0.22087142      -0.46929784 </v>
   <v>       0.03348975      -0.22757969       0.26514966 </v>
   <v>      -0.05650417      -0.02123422      -0.34488806 </v>
   <v>      -0.45276499      -0.35684036      -0.05896710 </v>
   <v>       0.07924411      -0.41808645       0.10532711 </v>
   <v>       0.01769058       0.50120341      -0.06149163 </v>
   <v>      -0.39336395       0.22140897      -0.09270210 </v>
   <v>       0.42537555       0.14252577      -0.28788152 </v>
   <v>      -0.12209247       0.27702753       0.00571975 </v>
   <v>       0.00030181       0.35863571       0.08259705 </v>
   <v>       0.05482689      -0.35130055       0.02225838 </v>
  </varray>
  <varray name="stress" >
   <v>    -417.23244490       0.12514784       0.10415573 </v>
   <v>       0.12514701    -417.18603896       0.09527713 </v>
   <v>       0.10415541       0.09527726    -417.41597794 </v>
  </varray>
  <energy>
   <i name="e_fr_energy">   -440.95196374 </i>
   <i name="e_wo_entrp">   -440.28086015 </i>
   <i name="e_0_energy">   -440.61641195 </i>
  </energy>
  <time name="totalsc"> 3155.89 3191.70</time>
 </calculation>
 <calculation>
  <scstep>
   <time name="dav">   65.01   65.72</time>
   <time name="total">   65.44   66.17</time>
   <energy>
    <i name="alphaZ">   5373.09038512 </i>
    <i name="ewald"> -42458.45444734 </i>
    <i name="hartreedc"> -13216.99666681 </i>
    <i name="XCdc">   2043.84541529 </i>
    <i name="pawpsdc">  25444.47683161 </i>
    <i name="pawaedc"> -25048.39270177 </i>
    <i name="eentropy">     -0.05887548 </i>
    <i name="bandstr">   1360.67500951 </i>
    <i name="atom">  43020.31474387 </i>
    <i name="e_fr_energy">  -3481.50030601 </i>
    <i name="e_wo_entrp">  -3481.44143053 </i>
    <i name="e_0_energy">  -3481.47086827 </i>
   </energy>
  </scstep>
  <scstep>
   <time name="diag">    2.23    2.30</time>
   <time name="diis">   55.27   56.35</time>
   <time name="orth">    0.56    0.57</time>
   <time name="total">   58.52   60.03</time>
   <energy>
    <i name="e_fr_energy">  -1098.85560883 </i>
    <i name="e_wo_entrp">  -1098.77730786 </i>
    <i name="e_0_energy">  -1098.81645834 </i>
   </energy>
  </scstep>
  <scstep>
   <time name="diag">    2.35    2.39</time>
   <time name="diis">   52.08   53.05</time>
   <time name="orth">    0.59    0.60</time>
   <time name="total">   55.48   56.51</time>
   <energy>
    <i name="e_fr_energy">   -602.46860831 </i>
    <i name="e_wo_entrp">   -602.29332793 </i>
    <i name="e_0_energy">   -602.38096812 </i>
   </energy>
  </scstep>
  <scstep>
   <time name="diag">    2.24    2.28</time>
   <time name="diis">   45.98   46.85</time>
   <time name="orth">    0.56    0.56</time>
   <time name="total">   49.22   50.15</time>
   <energy>
    <i name="e_fr_energy">   -641.85351252 </i>
    <i name="e_wo_entrp">   -641.75848388 </i>
    <i name="e_0_energy">   -641.80599820 </i>
   </energy>
  </scstep>
  <scstep>
   <time name="diag">    2.19    2.23</time>
   <time name="diis">   51.28   52.37</time>
   <time name="orth">    0.58    0.59</time>
   <time name="total">   54.53   55.68</time>
   <energy>
    <i name="e_fr_energy">   -607.01773332 </i>
    <i name="e_wo_entrp">   -606.94128050 </i>
    <i name="e_0_energy">   -606.97950691 </i>
   </energy>
  </scstep>
  <scstep>
   <time name="diag">    2.25    2.29</time>
   <time name="diis">   51.21   52.43</time>
   <time name="orth">    0.57    0.58</time>
   <time name="total">   54.49   55.78</time>
   <energy>
    <i name="e_fr_energy">   -606.77169218 </i>
    <i name="e_wo_entrp">   -606.64432316 </i>
    <i name="e_0_energy">   -606.70800767 </i>
   </energy>
  </scstep>
  <scstep>
   <time name="diag">    2.20    2.23</time>
   <time name="diis">   52.64   53.76</time>
   <time name="orth">    0.56    0.56</time>
   <time name="total">   55.86   57.00</time>
   <energy>
    <i name="e_fr_energy">   -606.94879176 </i>
    <i name="e_wo_entrp">   -606.82367473 </i>
    <i name="e_0_energy">   -606.88623325 </i>
   </energy>
  </scstep>
  <scstep>
   <time name="diag">    2.21    2.23</time>
   <time name="diis">   40.10   40.76</time>
   <time name="orth">    0.56    0.56</time>
   <time name="total">   43.33   44.02</time>
   <energy>
    <i name="e_fr_energy">   -604.69906354 </i>
    <i name="e_wo_entrp">   -604.56815381 </i>
    <i name="e_0_energy">   -604.63360867 </i>
   </energy>
  </scstep>
  <scstep>
   <time name="diag">    2.32    2.34</time>
   <time name="diis">   47.26   48.10</time>
   <time name="orth">    0.56    0.56</time>
   <time name="total">   50.60   51.49</time>
   <energy>
    <i name="e_fr_energy">   -605.09564345 </i>
    <i name="e_wo_entrp">   -604.99704149 </i>
    <i name="e_0_energy">   -605.04634247 </i>
   </energy>
  </scstep>
  <scstep>
   <time name="diag">    2.28    2.32</time>
   <time name="diis">   46.94   47.55</time>
   <time name="orth">    0.56    0.59</time>
   <time name="total">   50.24   50.91</time>
   <energy>
    <i name="e_fr_energy">   -604.54532059 </i>
    <i name="e_wo_entrp">   -604.42531976 </i>
    <i name="e_0_energy">   -604.48532017 </i>
   </energy>
  </scstep>
  <scstep>
   <time name="diag">    2.25    2.31</time>
   <time name="diis">   46.98   47.55</time>
   <time name="orth">    0.60    0.60</time>
   <time name="total">   50.28   50.91</time>
   <energy>
    <i name="e_fr_energy">   -604.37670680 </i>
    <i name="e_wo_entrp">   -604.25654145 </i>
    <i name="e_0_energy">   -604.31662413 </i>
   </energy>
  </scstep>
  <scstep>
   <time name="diag">    2.27    2.30</time>
   <time name="diis">   48.59   49.26</time>
   <time name="orth">    0.64    0.65</time>
   <time name="total">   51.94   52.68</time>
   <energy>
    <i name="e_fr_energy">   -604.42763981 </i>
    <i name="e_wo_entrp">   -604.29929657 </i>
    <i name="e_0_energy">   -604.36346819 </i>
   </energy>
  </scstep>
  <scstep>
   <time name="diag">    2.24    2.26</time>
   <time name="diis">   50.27   50.99</time>
   <time name="orth">    0.59    0.59</time>
   <time name="total">   53.55   54.30</time>
   <energy>
    <i name="e_fr_energy">   -604.39986431 </i>
    <i name="e_wo_entrp">   -604.27366755 </i>
    <i name="e_0_energy">   -604.33676593 </i>
   </energy>
  </scstep>
  <scstep>
   <time name="diag">    2.56    2.60</time>
   <time name="diis">   48.74   49.31</time>
   <time name="orth">    0.62    0.63</time>
   <time name="total">   52.37   53.00</time>
   <energy>
    <i name="e_fr_energy">   -604.39400905 </i>
    <i name="e_wo_entrp">   -604.26935583 </i>
    <i name="e_0_energy">   -604.33168244 </i>
   </energy>
  </scstep>
  <scstep>
   <time name="diag">    2.21    2.23</time>
   <time name="diis">   50.86   51.62</time>
   <time name="orth">    0.56    0.56</time>
   <time name="total">   54.09   54.88</time>
   <energy>
    <i name="e_fr_energy">   -604.39691058 </i>
    <i name="e_wo_entrp">   -604.27222923 </i>
    <i name="e_0_energy">   -604.33456990 </i>
   </energy>
  </scstep>
  <scstep>
   <time name="diag">    2.30    2.33</time>
   <time name="diis">   50.75   51.53</time>
   <time name="orth">    0.56    0.57</time>
   <time name="total">   54.07   54.89</time>
   <energy>
    <i name="e_fr_energy">   -604.39864699 </i>
    <i name="e_wo_entrp">   -604.27464380 </i>
    <i name="e_0_energy">   -604.33664540 </i>
   </energy>
  </scstep>
  <scstep>
   <time name="diag">    2.26    2.28</time>
   <time name="diis">   49.46   50.30</time>
   <time name="orth">    0.56    0.56</time>
   <time name="total">   52.73   53.60</time>
   <energy>
    <i name="e_fr_energy">   -604.40015768 </i>
    <i name="e_wo_entrp">   -604.27624078 </i>
    <i name="e_0_energy">   -604.33819923 </i>
   </energy>
  </scstep>
  <scstep>
   <time name="diag">    2.25    2.27</time>
   <time name="diis">   49.17   49.90</time>
   <time name="orth">    0.56    0.56</time>
   <time name="total">   52.43   53.20</time>
   <energy>
    <i name="e_fr_energy">   -604.40085143 </i>
    <i name="e_wo_entrp">   -604.27704894 </i>
    <i name="e_0_energy">   -604.33895018 </i>
   </energy>
  </scstep>
  <scstep>
   <time name="diag">    2.26    2.29</time>
   <time name="diis">   47.07   47.87</time>
   <time name="orth">    0.58    0.59</time>
   <time name="total">   50.39   51.24</time>
   <energy>
    <i name="e_fr_energy">   -604.40119748 </i>
    <i name="e_wo_entrp">   -604.27692139 </i>
    <i name="e_0_energy">   -604.33905944 </i>
   </energy>
  </scstep>
  <scstep>
   <time name="diag">    2.23    2.26</time>
   <time name="diis">   41.38   42.03</time>
   <time name="orth">    0.56    0.59</time>
   <time name="total">   44.67   45.38</time>
   <energy>
    <i name="e_fr_energy">   -604.40144939 </i>
    <i name="e_wo_entrp">   -604.27729456 </i>
    <i name="e_0_energy">   -604.33937198 </i>
   </energy>
  </scstep>
  <scstep>
   <time name="diag">    2.22    2.23</time>
   <time name="diis">   36.46   36.88</time>
   <time name="orth">    0.64    0.65</time>
   <time name="total">   39.77   40.21</time>
   <energy>
    <i name="e_fr_energy">   -604.40165509 </i>
    <i name="e_wo_entrp">   -604.27751925 </i>
    <i name="e_0_energy">   -604.33958717 </i>
   </energy>
  </scstep>
  <scstep>
   <time name="diag">    2.22    2.23</time>
   <time name="diis">   28.90   29.36</time>
   <time name="orth">    0.55    0.56</time>
   <time name="total">   32.13   32.62</time>
   <energy>
    <i name="e_fr_energy">   -604.40174690 </i>
    <i name="e_wo_entrp">   -604.27761008 </i>
    <i name="e_0_energy">   -604.33967849 </i>
   </energy>
  </scstep>
  <scstep>
   <time name="diag">    2.31    2.39</time>
   <time name="diis">   35.13   35.49</time>
   <time name="orth">    0.61    0.62</time>
   <time name="total">   38.52   38.96</time>
   <energy>
    <i name="e_fr_energy">   -604.40181328 </i>
    <i name="e_wo_entrp">   -604.27773231 </i>
    <i name="e_0_energy">   -604.33977279 </i>
   </energy>
  </scstep>
  <scstep>
   <time name="diag">    2.23    2.24</time>
   <time name="diis">   28.19   28.68</time>
   <time name="orth">    0.56    0.57</time>
   <time name="total">   31.45   31.95</time>
   <energy>
    <i name="e_fr_energy">   -604.40184121 </i>
    <i name="e_wo_entrp">   -604.27777871 </i>
    <i name="e_0_energy">   -604.33980996 </i>
   </energy>
  </scstep>
  <scstep>
   <time name="diag">    2.25    2.30</time>
   <time name="diis">   26.18   26.53</time>
   <time name="orth">    0.56    0.56</time>
   <time name="total">   29.47   29.88</time>
   <energy>
    <i name="e_fr_energy">   -604.40186650 </i>
    <i name="e_wo_entrp">   -604.27779130 </i>
    <i name="e_0_energy">   -604.33982890 </i>
   </energy>
  </scstep>
  <scstep>
   <time name="diag">    2.26    2.29</time>
   <time name="diis">   25.71   26.08</time>
   <time name="orth">    0.57    0.58</time>
   <time name="total">   28.58   28.98</time>
   <energy>
    <i name="alphaZ">   5373.09038512 </i>
    <i name="ewald"> -42458.45444734 </i>
    <i name="hartreedc">  -4982.51483140 </i>
    <i name="XCdc">   1558.24754603 </i>
    <i name="pawpsdc">  32472.08220157 </i>
    <i name="pawaedc"> -32181.20748556 </i>
    <i name="eentropy">     -0.12407204 </i>
    <i name="bandstr">  -3405.83591635 </i>
    <i name="atom">  43020.31474387 </i>
    <i name="e_fr_energy">   -604.40187610 </i>
    <i name="e_wo_entrp">   -604.27780406 </i>
    <i name="e_0_energy">   -604.33984008 </i>
   </energy>
  </scstep>
  <structure>
   <crystal>
    <varray name="basis" >
     <v>       8.10683007       0.00093979       0.00078215 </v>
     <v>       0.00093978       8.10717855       0.00071548 </v>
     <v>       0.00078215       0.00071548       8.10545184 </v>
    </varray>
    <i name="volume">    532.71880002 </i>
    <varray name="rec_basis" >
     <v>       0.12335278      -0.00001430      -0.00001190 </v>
     <v>      -0.00001430       0.12334748      -0.00001089 </v>
     <v>      -0.00001190      -0.00001089       0.12337375 </v>
    </varray>
   </crystal>
   <varray name="positions" >
    <v>       0.99976990       0.99928431       0.00109938 </v>
    <v>       0.24921700       0.99957314       0.25097553 </v>
    <v>       0.25124409       0.50049024       0.24995156 </v>
    <v>       0.49990854       0.49886065       0.99997885 </v>
    <v>       0.49893315       0.25090797       0.75101942 </v>
    <v>       0.00029893       0.49954702       0.50133358 </v>
    <v>       0.49975820       0.74915538       0.74914152 </v>
    <v>       0.99993617       0.24739902       0.25199350 </v>
    <v>       0.75210301       0.74838062       0.99987152 </v>
    <v>       0.00209344       0.25175012       0.74793752 </v>
    <v>       0.75232705       0.25190332       0.49986057 </v>
    <v>       0.00009792       0.74826962       0.75035517 </v>
    <v>       0.24973710       0.50011237       0.75020395 </v>
    <v>       0.25087508       0.25128386       0.99877301 </v>
    <v>       0.49999726       0.25105485       0.24862888 </v>
    <v>       0.75111869       0.99871001       0.24976549 </v>
    <v>       0.74894071       0.25116079       0.00013982 </v>
    <v>       0.24848331       0.74859241       0.99974554 </v>
    <v>       0.24842461       0.25011744       0.50127343 </v>
    <v>       0.24984454       0.74994116       0.50030815 </v>
    <v>       0.24896857       0.24985798       0.24991578 </v>
    <v>       0.25124200       0.00008176       0.99903794 </v>
    <v>       0.99997426       0.25100428       0.00009148 </v>
    <v>       0.75088381       0.25277045       0.25097212 </v>
    <v>       0.74878751       0.99958764       0.99815153 </v>
    <v>       0.49945125       0.99850339       0.24985240 </v>
    <v>       0.99778701       0.50204380       0.24894100 </v>
    <v>       0.50054907       0.75137082       0.00090961 </v>
    <v>       0.99983698       0.00012558       0.74803079 </v>
    <v>       0.74987889       0.25081094       0.74919965 </v>
    <v>       0.75123812       0.99810401       0.50154092 </v>
    <v>       0.50077928       0.25107119       0.50067985 </v>
    <v>       0.50021330       0.00011465       0.75012308 </v>
    <v>       0.00014280       0.99851402       0.25235093 </v>
    <v>       0.50005567       0.24808316       0.99974596 </v>
    <v>       0.24898273       0.75002831       0.24986601 </v>
    <v>       0.24839248       0.49991219       0.99935424 </v>
    <v>       0.99903846       0.74875287       0.00156905 </v>
    <v>       0.75090602       0.74755256       0.25154495 </v>
    <v>       0.75136304       0.50080264       0.00021410 </v>
    <v>       0.50258019       0.50143192       0.25230713 </v>
    <v>       0.24890572       0.24932623       0.75004760 </v>
    <v>       0.24886055       0.00015438       0.50130868 </v>
    <v>       0.99878968       0.24763198       0.49995297 </v>
    <v>       0.24929328       0.75069494       0.75011183 </v>
    <v>       0.25238731       0.49984630       0.50059727 </v>
    <v>       0.99745749       0.75232129       0.49841366 </v>
    <v>       0.99839846       0.49987785       0.75141524 </v>
    <v>       0.75047414       0.74924496       0.74842845 </v>
    <v>       0.74802449       0.50142550       0.49980584 </v>
    <v>       0.50254876       0.74910928       0.49885129 </v>
    <v>       0.50184214       0.49985301       0.74765323 </v>
    <v>       0.50042826       0.00200857       0.00023992 </v>
    <v>       0.00020614       0.50094799       0.99798575 </v>
    <v>       0.50014374       0.74902326       0.25113804 </v>
    <v>       0.24975748       0.99990886       0.74851976 </v>
[...]
      </set>
     </set>
    </set>
   </array>
  </eigenvalues>
  <separator name="orbital magnetization" >
   <v name="MAGDIPOLOUT">      0.00000000      0.00000000      0.00000000</v>
  </separator>
  <dos>
   <i name="efermi">      8.38519631 </i>
   <total>
    <array>
     <dimension dim="1">gridpoints</dimension>
     <dimension dim="2">spin</dimension>
     <field>energy</field>
     <field>total</field>
     <field>integrated</field>
     <set>
      <set comment="spin 1">
       <r>   -32.8979     0.0000     0.0000 </r>
       <r>   -32.7452     0.0000     0.0000 </r>
       <r>   -32.5924     0.0000     0.0000 </r>
       <r>   -32.4396     0.0000     0.0000 </r>
       <r>   -32.2869     0.0000     0.0000 </r>
       <r>   -32.1341     0.0000     0.0000 </r>
       <r>   -31.9814     0.0000     0.0000 </r>
       <r>   -31.8286     0.0000     0.0000 </r>
       <r>   -31.6758     0.0000     0.0000 </r>
       <r>   -31.5231     0.0000     0.0000 </r>
       <r>   -31.3703     0.0000     0.0000 </r>
       <r>   -31.2175     0.0000     0.0000 </r>
       <r>   -31.0648     0.0027     0.0004 </r>
       <r>   -30.9120     1.1886     0.1820 </r>
       <r>   -30.7593    16.0710     2.6370 </r>
       <r>   -30.6065    58.3986    11.5581 </r>
       <r>   -30.4537   128.9561    31.2577 </r>
       <r>   -30.3010    65.8210    41.3127 </r>
       <r>   -30.1482     4.4873    41.9981 </r>
       <r>   -29.9954     0.0121    42.0000 </r>
       <r>   -29.8427     0.0000    42.0000 </r>
       <r>   -29.6899     0.0000    42.0000 </r>
       <r>   -29.5372     0.0000    42.0000 </r>
       <r>   -29.3844     0.0000    42.0000 </r>
       <r>   -29.2316     0.0000    42.0000 </r>
       <r>   -29.0789     0.0000    42.0000 </r>
       <r>   -28.9261     0.0000    42.0000 </r>
       <r>   -28.7734     0.0000    42.0000 </r>
       <r>   -28.6206     0.0000    42.0000 </r>
       <r>   -28.4678     0.0000    42.0000 </r>
       <r>   -28.3151     0.0002    42.0000 </r>
       <r>   -28.1623     0.3419    42.0523 </r>
       <r>   -28.0095    12.9296    44.0274 </r>
       <r>   -27.8568    48.0923    51.3741 </r>
       <r>   -27.7040    91.6934    65.3814 </r>
       <r>   -27.5513    64.6664    75.2599 </r>
       <r>   -27.3985    17.3122    77.9046 </r>
       <r>   -27.2457     0.6608    78.0055 </r>
       <r>   -27.0930     5.0414    78.7757 </r>
       <r>   -26.9402    40.5498    84.9701 </r>
       <r>   -26.7874    80.7034    97.2986 </r>
       <r>   -26.6347    79.8750   109.5004 </r>
       <r>   -26.4819    28.4694   113.8495 </r>
       <r>   -26.3292     0.9845   113.9999 </r>
       <r>   -26.1764     0.0009   114.0000 </r>
       <r>   -26.0236     0.0261   114.0040 </r>
       <r>   -25.8709     4.2922   114.6597 </r>
       <r>   -25.7181    24.3916   118.3858 </r>
       <r>   -25.5653    38.3983   124.2516 </r>
       <r>   -25.4126   105.8732   140.4250 </r>
       <r>   -25.2598    72.5331   151.5053 </r>
       <r>   -25.1071    27.2375   155.6661 </r>
       <r>   -24.9543     2.1789   155.9990 </r>
       <r>   -24.8015     0.0066   156.0000 </r>
       <r>   -24.6488     0.0000   156.0000 </r>
       <r>   -24.4960     0.0000   156.0000 </r>
       <r>   -24.3433     0.0409   156.0063 </r>
       <r>   -24.1905     3.9997   156.6172 </r>
       <r>   -24.0377    19.7437   159.6333 </r>
       <r>   -23.8850    39.7463   165.7051 </r>
       <r>   -23.7322    50.4617   173.4137 </r>
       <r>   -23.5794    58.8825   182.4087 </r>
       <r>   -23.4267    40.1599   188.5436 </r>
       <r>   -23.2739    21.4079   191.8139 </r>
       <r>   -23.1212     1.2160   191.9997 </r>
       <r>   -22.9684     0.0020   192.0000 </r>
       <r>   -22.8156     0.0000   192.0000 </r>
       <r>   -22.6629     0.0000   192.0000 </r>
       <r>   -22.5101     0.0000   192.0000 </r>
       <r>   -22.3573     0.0000   192.0000 </r>
       <r>   -22.2046     0.0000   192.0000 </r>
       <r>   -22.0518     0.0000   192.0000 </r>
       <r>   -21.8991     0.0000   192.0000 </r>
       <r>   -21.7463     0.0000   192.0000 </r>
       <r>   -21.5935     0.0000   192.0000 </r>
       <r>   -21.4408     0.0000   192.0000 </r>
       <r>   -21.2880     0.0000   192.0000 </r>
       <r>   -21.1352     0.0000   192.0000 </r>
       <r>   -20.9825     0.0000   192.0000 </r>
       <r>   -20.8297     0.0000   192.0000 </r>
       <r>   -20.6770     0.0000   192.0000 </r>
       <r>   -20.5242     0.0000   192.0000 </r>
       <r>   -20.3714     0.0000   192.0000 </r>
       <r>   -20.2187     0.0000   192.0000 </r>
       <r>   -20.0659     0.0000   192.0000 </r>
       <r>   -19.9132     0.0000   192.0000 </r>
       <r>   -19.7604     0.0000   192.0000 </r>
       <r>   -19.6076     0.0000   192.0000 </r>
       <r>   -19.4549     0.0000   192.0000 </r>
       <r>   -19.3021     0.0000   192.0000 </r>
       <r>   -19.1493     0.0000   192.0000 </r>
       <r>   -18.9966     0.0000   192.0000 </r>
       <r>   -18.8438     0.0000   192.0000 </r>
       <r>   -18.6911     0.0000   192.0000 </r>
       <r>   -18.5383     0.0000   192.0000 </r>
       <r>   -18.3855     0.0000   192.0000 </r>
       <r>   -18.2328     0.0000   192.0000 </r>
       <r>   -18.0800     0.0000   192.0000 </r>
       <r>   -17.9272     0.0000   192.0000 </r>
       <r>   -17.7745     0.0000   192.0000 </r>
       <r>   -17.6217     0.0000   192.0000 </r>
       <r>   -17.4690     0.0000   192.0000 </r>
       <r>   -17.3162     0.0000   192.0000 </r>
       <r>   -17.1634     0.0000   192.0000 </r>
       <r>   -17.0107     0.0000   192.0000 </r>
       <r>   -16.8579     0.0000   192.0000 </r>
       <r>   -16.7051     0.0000   192.0000 </r>
       <r>   -16.5524     0.0000   192.0000 </r>
       <r>   -16.3996     0.0000   192.0000 </r>
       <r>   -16.2469     0.0000   192.0000 </r>
       <r>   -16.0941     0.0000   192.0000 </r>
       <r>   -15.9413     0.0000   192.0000 </r>
       <r>   -15.7886     0.0000   192.0000 </r>
       <r>   -15.6358     0.0000   192.0000 </r>
       <r>   -15.4831     0.0000   192.0000 </r>
       <r>   -15.3303     0.0000   192.0000 </r>
       <r>   -15.1775     0.0000   192.0000 </r>
       <r>   -15.0248     0.0000   192.0000 </r>
       <r>   -14.8720     0.0000   192.0000 </r>
       <r>   -14.7192     0.0000   192.0000 </r>
       <r>   -14.5665     0.0000   192.0000 </r>
       <r>   -14.4137     0.0000   192.0000 </r>
       <r>   -14.2610     0.0000   192.0000 </r>
       <r>   -14.1082     0.0000   192.0000 </r>
       <r>   -13.9554     0.0000   192.0000 </r>
       <r>   -13.8027     0.0000   192.0000 </r>
       <r>   -13.6499     0.0000   192.0000 </r>
       <r>   -13.4971     0.0000   192.0000 </r>
       <r>   -13.3444     0.0000   192.0000 </r>
       <r>   -13.1916     0.0000   192.0000 </r>
       <r>   -13.0389     0.0000   192.0000 </r>
       <r>   -12.8861     0.0000   192.0000 </r>
       <r>   -12.7333     0.0000   192.0000 </r>
       <r>   -12.5806     0.0000   192.0000 </r>
       <r>   -12.4278     0.0000   192.0000 </r>
       <r>   -12.2750     0.0000   192.0000 </r>
       <r>   -12.1223     0.0000   192.0000 </r>
       <r>   -11.9695     0.0000   192.0000 </r>
       <r>   -11.8168     0.0000   192.0000 </r>
       <r>   -11.6640     0.0000   192.0000 </r>
       <r>   -11.5112     0.0000   192.0000 </r>
       <r>   -11.3585     0.0000   192.0000 </r>
       <r>   -11.2057     0.0000   192.0000 </r>
       <r>   -11.0530     0.0000   192.0000 </r>
       <r>   -10.9002     0.0000   192.0000 </r>
       <r>   -10.7474     0.0000   192.0000 </r>
       <r>   -10.5947     0.0000   192.0000 </r>
       <r>   -10.4419     0.0000   192.0000 </r>
       <r>   -10.2891     0.0000   192.0000 </r>
       <r>   -10.1364     0.0000   192.0000 </r>
       <r>    -9.9836     0.0000   192.0000 </r>
       <r>    -9.8309     0.0000   192.0000 </r>
       <r>    -9.6781     0.0000   192.0000 </r>
       <r>    -9.5253     0.0000   192.0000 </r>
       <r>    -9.3726     0.0000   192.0000 </r>
       <r>    -9.2198     0.0000   192.0000 </r>
       <r>    -9.0670     0.0000   192.0000 </r>
       <r>    -8.9143     0.0000   192.0000 </r>
       <r>    -8.7615     0.0000   192.0000 </r>
       <r>    -8.6088     0.0000   192.0000 </r>
       <r>    -8.4560     0.0000   192.0000 </r>
       <r>    -8.3032     0.0020   192.0003 </r>
       <r>    -8.1505     0.3258   192.0501 </r>
       <r>    -7.9977     3.8859   192.6437 </r>
       <r>    -7.8449     7.3730   193.7700 </r>
       <r>    -7.6922     3.9515   194.3736 </r>
       <r>    -7.5394    10.3201   195.9502 </r>
       <r>    -7.3867    11.0618   197.6400 </r>
       <r>    -7.2339     7.2475   198.7471 </r>
       <r>    -7.0811    14.9395   201.0293 </r>
       <r>    -6.9284    16.8617   203.6052 </r>
       <r>    -6.7756    23.8230   207.2444 </r>
       <r>    -6.6229    24.7757   211.0292 </r>
       <r>    -6.4701    25.8457   214.9774 </r>
       <r>    -6.3173    16.1990   217.4520 </r>
       <r>    -6.1646     3.5512   217.9945 </r>
       <r>    -6.0118     0.0359   218.0000 </r>
       <r>    -5.8590     0.0000   218.0000 </r>
       <r>    -5.7063     0.0000   218.0000 </r>
       <r>    -5.5535     0.0000   218.0000 </r>
       <r>    -5.4008     0.0000   218.0000 </r>
       <r>    -5.2480     0.0000   218.0000 </r>
       <r>    -5.0952     0.0000   218.0000 </r>
       <r>    -4.9425     0.0000   218.0000 </r>
       <r>    -4.7897     0.0368   218.0056 </r>
       <r>    -4.6369     1.1892   218.1873 </r>
       <r>    -4.4842     5.2609   218.9910 </r>
       <r>    -4.3314     5.7081   219.8629 </r>
       <r>    -4.1787     3.1519   220.3444 </r>
       <r>    -4.0259     9.3444   221.7719 </r>
       <r>    -3.8731     8.9234   223.1351 </r>
       <r>    -3.7204     9.9713   224.6583 </r>
       <r>    -3.5676    14.5183   226.8761 </r>
       <r>    -3.4148    20.4761   230.0041 </r>
       <r>    -3.2621    25.8382   233.9512 </r>
       <r>    -3.1093    23.1888   237.4936 </r>
       <r>    -2.9566    26.2368   241.5016 </r>
       <r>    -2.8038    24.7635   245.2845 </r>
       <r>    -2.6510    17.0313   247.8862 </r>
       <r>    -2.4983    20.0657   250.9515 </r>
       <r>    -2.3455    17.2282   253.5833 </r>
       <r>    -2.1928    10.4781   255.1840 </r>
       <r>    -2.0400     4.7852   255.9150 </r>
       <r>    -1.8872     0.5524   255.9993 </r>
       <r>    -1.7345     0.0043   256.0000 </r>
       <r>    -1.5817     0.0000   256.0000 </r>
       <r>    -1.4289     0.0000   256.0000 </r>
       <r>    -1.2762     0.0000   256.0000 </r>
       <r>    -1.1234     0.0000   256.0000 </r>
       <r>    -0.9707     0.0000   256.0000 </r>
       <r>    -0.8179     0.0000   256.0000 </r>
       <r>    -0.6651     0.0000   256.0000 </r>
       <r>    -0.5124     0.0000   256.0000 </r>
       <r>    -0.3596     0.0000   256.0000 </r>
       <r>    -0.2068     0.0000   256.0000 </r>
       <r>    -0.0541     0.0000   256.0000 </r>
       <r>     0.0987     0.0168   256.0026 </r>
       <r>     0.2514     0.5576   256.0877 </r>
       <r>     0.4042     1.2610   256.2804 </r>
       <r>     0.5570     3.0014   256.7389 </r>
       <r>     0.7097     9.7264   258.2247 </r>
       <r>     0.8625     9.7207   259.7096 </r>
       <r>     1.0153     8.8260   261.0579 </r>
       <r>     1.1680    16.8220   263.6277 </r>
       <r>     1.3208    17.9115   266.3639 </r>
       <r>     1.4735    22.9727   269.8732 </r>
       <r>     1.6263    30.3351   274.5073 </r>
       <r>     1.7791    30.9545   279.2360 </r>
       <r>     1.9318    27.5565   283.4456 </r>
       <r>     2.0846    24.3231   287.1612 </r>
       <r>     2.2373    30.9977   291.8965 </r>
       <r>     2.3901    38.1114   297.7185 </r>
       <r>     2.5429    33.0983   302.7746 </r>
       <r>     2.6956    38.1349   308.6002 </r>
       <r>     2.8484    42.1450   315.0384 </r>
       <r>     3.0012    44.0802   321.7721 </r>
       <r>     3.1539    50.6369   329.5075 </r>
       <r>     3.3067    62.2667   339.0195 </r>
       <r>     3.4594    63.1449   348.6657 </r>
       <r>     3.6122    68.0135   359.0555 </r>
       <r>     3.7650    66.7929   369.2590 </r>
       <r>     3.9177    61.4264   378.6426 </r>
       <r>     4.0705    61.5367   388.0431 </r>
       <r>     4.2233    61.0926   397.3757 </r>
       <r>     4.3760    54.0131   405.6269 </r>
       <r>     4.5288    43.1672   412.2212 </r>
       <r>     4.6815    36.2179   417.7539 </r>
       <r>     4.8343    33.6164   422.8892 </r>
       <r>     4.9871    32.5301   427.8586 </r>
       <r>     5.1398    30.6086   432.5344 </r>
       <r>     5.2926    21.6368   435.8397 </r>
       <r>     5.4454    19.8112   438.8661 </r>
       <r>     5.5981    19.9363   441.9116 </r>
       <r>     5.7509    16.6716   444.4584 </r>
       <r>     5.9036    14.5046   446.6741 </r>
       <r>     6.0564     4.9945   447.4371 </r>
       <r>     6.2092     5.8012   448.3233 </r>
       <r>     6.3619    11.2272   450.0384 </r>
       <r>     6.5147    14.3043   452.2235 </r>
       <r>     6.6674    17.4404   454.8878 </r>
       <r>     6.8202    19.5803   457.8789 </r>
       <r>     6.9730    19.8707   460.9144 </r>
       <r>     7.1257    18.3949   463.7244 </r>
       <r>     7.2785    18.6270   466.5699 </r>
       <r>     7.4313    16.3910   469.0739 </r>
       <r>     7.5840    14.9425   471.3565 </r>
       <r>     7.7368    22.4734   474.7896 </r>
       <r>     7.8895    27.0516   478.9220 </r>
       <r>     8.0423    29.6516   483.4517 </r>
       <r>     8.1951    25.6764   487.3740 </r>
       <r>     8.3478    24.8173   491.1652 </r>
       <r>     8.5006    21.4228   494.4378 </r>
       <r>     8.6534    29.1971   498.8980 </r>
       <r>     8.8061    38.6385   504.8005 </r>
       <r>     8.9589    47.2155   512.0132 </r>
       <r>     9.1116    49.1574   519.5226 </r>
       <r>     9.2644    50.9162   527.3007 </r>
       <r>     9.4172    54.9193   535.6902 </r>
       <r>     9.5699    54.2882   543.9834 </r>
       <r>     9.7227    54.4481   552.3010 </r>
       <r>     9.8755    58.7268   561.2723 </r>
       <r>    10.0282    64.7464   571.1631 </r>
       <r>    10.1810    66.1198   581.2637 </r>
       <r>    10.3337    62.7442   590.8486 </r>
       <r>    10.4865    61.2102   600.1992 </r>
       <r>    10.6393    57.7545   609.0219 </r>
       <r>    10.7920    36.5395   614.6037 </r>
       <r>    10.9448     8.7652   615.9427 </r>
       <r>    11.0975     0.3745   615.9999 </r>
       <r>    11.2503     0.0006   616.0000 </r>
       <r>    11.4031     0.0000   616.0000 </r>
       <r>    11.5558     0.0000   616.0000 </r>
       <r>    11.7086     0.0000   616.0000 </r>
       <r>    11.8614     0.0000   616.0000 </r>
       <r>    12.0141     0.0000   616.0000 </r>
       <r>    12.1669     0.0000   616.0000 </r>
       <r>    12.3196     0.0000   616.0000 </r>
       <r>    12.4724     0.0000   616.0000 </r>
       <r>    12.6252     0.0000   616.0000 </r>
       <r>    12.7779     0.0000   616.0000 </r>
       <r>    12.9307     0.0000   616.0000 </r>
      </set>
     </set>
    </array>
   </total>
  </dos>
 </calculation>
 <structure name="finalpos" >
  <crystal>
   <varray name="basis" >
    <v>       8.75735920      -0.00531635       0.03172919 </v>
    <v>      -0.00526727       8.70584850       0.00874281 </v>
    <v>       0.03172773       0.00862441       8.73767229 </v>
   </varray>
   <i name="volume">    666.15258236 </i>
   <varray name="rec_basis" >
    <v>       0.11419122       0.00006951      -0.00041471 </v>
    <v>       0.00007014       0.11486547      -0.00011363 </v>
    <v>      -0.00041473      -0.00011519       0.11444858 </v>
   </varray>
  </crystal>
  <varray name="positions" >
   <v>       0.00755282       0.01283395       0.00606358 </v>
   <v>       0.24691622       0.00911606       0.25260199 </v>
   <v>       0.25303094       0.49237082       0.25025905 </v>
   <v>       0.49747235       0.50197556       0.99976832 </v>
   <v>       0.49578210       0.24800963       0.75477412 </v>
   <v>       0.00638803       0.49984930       0.50166481 </v>
   <v>       0.49585846       0.75191593       0.74779141 </v>
   <v>       0.98671927       0.23687445       0.25959770 </v>
   <v>       0.77096352       0.74484055       0.99605596 </v>
   <v>       0.02396383       0.26157105       0.74436206 </v>
   <v>       0.76568622       0.25905354       0.48289920 </v>
   <v>       0.00038750       0.73757218       0.75333908 </v>
   <v>       0.25307846       0.49951624       0.75396195 </v>
   <v>       0.26941721       0.26097669       0.99490250 </v>
   <v>       0.49261586       0.26179203       0.23240123 </v>
   <v>       0.76590186       0.00037146       0.22771415 </v>
   <v>       0.72106685       0.25062171       0.00936630 </v>
   <v>       0.23614219       0.73163169       0.00303370 </v>
   <v>       0.24106882       0.24490509       0.51703764 </v>
   <v>       0.25630561       0.75626342       0.49416506 </v>
   <v>       0.24929809       0.24934084       0.24938493 </v>
   <v>       0.24895657       0.00669805       0.00487886 </v>
   <v>       0.00270417       0.24547202       0.00238019 </v>
   <v>       0.73552684       0.23867946       0.24192828 </v>
   <v>       0.75817800       0.00605057       0.00766103 </v>
   <v>       0.50026978       0.00943198       0.25033751 </v>
   <v>       0.99978252       0.49901671       0.25389884 </v>
   <v>       0.49363889       0.74969821       0.99424506 </v>
   <v>       0.99814552       0.00374366       0.75462618 </v>
   <v>       0.74599732       0.24849062       0.75031962 </v>
   <v>       0.75236624       0.99934751       0.50206274 </v>
   <v>       0.49757177       0.25139684       0.50154192 </v>
   <v>       0.50135440       0.00077472       0.74919891 </v>
   <v>       0.00065669       0.99863347       0.24917917 </v>
   <v>       0.49586142       0.25793034       0.99820822 </v>
   <v>       0.24927496       0.75052451       0.24753681 </v>
   <v>       0.25303550       0.49883073       0.00461189 </v>
   <v>       0.00971893       0.75337549       0.00049317 </v>
   <v>       0.75157281       0.75424146       0.24773675 </v>
   <v>       0.74588192       0.49288687       0.99960842 </v>
   <v>       0.49572540       0.49464613       0.24695818 </v>
   <v>       0.25792282       0.25044849       0.75588287 </v>
   <v>       0.24756265       0.00228628       0.49467011 </v>
   <v>       0.00700354       0.25425121       0.50301069 </v>
   <v>       0.25048853       0.74688014       0.75213751 </v>
   <v>       0.24809635       0.49852199       0.49885389 </v>
   <v>       0.00457136       0.74903908       0.50226267 </v>
   <v>       0.99925030       0.49813093       0.74481534 </v>
   <v>       0.74487406       0.74762994       0.75051627 </v>
   <v>       0.75248113       0.49970227       0.49820025 </v>
   <v>       0.49496978       0.74811777       0.50375701 </v>
   <v>       0.49871909       0.49933000       0.75121364 </v>
   <v>       0.49697421       0.00583644       0.00562235 </v>
   <v>       0.00129791       0.49545156       0.99600398 </v>
   <v>       0.49394147       0.74526176       0.25016102 </v>
   <v>       0.25277184       0.99737304       0.74515380 </v>
   <v>       0.49120717       0.99900895       0.49328739 </v>
   <v>       0.74829687       0.99599412       0.76720550 </v>
   <v>       0.00599433       0.75604012       0.25115581 </v>
   <v>       0.74528621       0.49565420       0.24845932 </v>
   <v>       0.00451367       0.00288510       0.49901219 </v>
   <v>       0.49226175       0.49748504       0.49940586 </v>
   <v>       0.74368245       0.49663758       0.75062543 </v>
   <v>       0.74599733       0.74676313       0.50003128 </v>
  </varray>
 </structure>
</modeling>
