    2    2  100    1
  0.1801100E+02  0.3302600E-09  0.3302600E-09  0.3302600E-09  0.5000000E-15
  1.000000000000000E-004
  CAR 
 HECN                                    
     22      4     28
 
  0.0000000E+00  0.0000000E+00  0.0000000E+00  0.3703704E-01
      1        -28.683346   1.000000
      2        -28.683346   1.000000
      3        -28.683346   1.000000
      4        -27.952455   1.000000
      5        -27.952455   1.000000
      6        -27.952455   1.000000
      7         -2.526895   1.000000
      8          1.592652   1.000000
      9          1.592652   1.000000
     10          5.888768   0.000000
     11          5.888768   0.000000
     12          5.888768   0.000000
     13          9.027829   0.000000
     14          9.027829   0.000000
     15         11.674199   0.000000
     16         11.674199   0.000000
     17         11.674199   0.000000
     18         13.533738   0.000000
     19         13.533738   0.000000
     20         13.533738   0.000000
     21         18.298624   0.000000
     22         18.307785   0.000000
     23         20.015926   0.000000
     24         20.015926   0.000000
     25         20.015926   0.000000
     26         20.295090   0.000000
     27         27.427408   0.000000
     28         27.427408   0.000000
 
  0.3333333E+00  0.0000000E+00  0.0000000E+00  0.2222222E+00
      1        -28.644252   1.000000
      2        -28.495901   1.000000
      3        -28.495901   1.000000
      4        -28.286191   1.000000
      5        -28.129965   1.000000
      6        -28.129965   1.000000
      7         -0.385707   1.000000
      8          2.508351   1.000000
      9          2.850292   1.000000
     10          5.857439   0.000000
     11          5.857439   0.000000
     12          6.243403   0.000000
     13          6.983507   0.000000
     14          7.640440   0.000000
     15          7.640440   0.000000
     16          9.749186   0.000000
     17          9.990585   0.000000
     18          9.995396   0.000000
     19         18.306547   0.000000
     20         18.306901   0.000000
     21         20.096062   0.000000
     22         20.096062   0.000000
     23         21.054938   0.000000
     24         21.196179   0.000000
     25         22.877761   0.000000
     26         23.578668   0.000000
     27         23.578668   0.000000
     28         26.112385   0.000000
 
  0.3333333E+00  0.3333333E+00  0.0000000E+00  0.4444444E+00
      1        -28.918301   1.000000
      2        -28.748910   1.000000
      3        -28.392645   1.000000
      4        -28.209182   1.000000
      5        -28.147534   1.000000
      6        -27.956359   1.000000
      7          0.601025   1.000000
      8          1.905963   1.000000
      9          4.174922   1.000000
     10          4.607935   1.000000
     11          4.883492   0.999961
     12          5.162705   0.500039
     13          7.143466   0.000000
     14          8.783325   0.000000
     15          9.450310   0.000000
     16         10.046876   0.000000
     17         11.825020   0.000000
     18         12.333810   0.000000
     19         15.935746   0.000000
     20         18.302173   0.000000
     21         18.310293   0.000000
     22         18.646763   0.000000
     23         19.120421   0.000000
     24         20.111618   0.000000
     25         20.341122   0.000000
     26         25.253296   0.000000
     27         25.718015   0.000000
     28         26.712537   0.000000
 
  0.3333333E+00  0.3333333E+00  0.3333333E+00  0.2962963E+00
      1        -28.778909   1.000000
      2        -28.676710   1.000000
      3        -28.676710   1.000000
      4        -28.195145   1.000000
      5        -28.195145   1.000000
      6        -28.085635   1.000000
      7          2.474830   1.000000
      8          2.846621   1.000000
      9          3.786883   1.000000
     10          3.786883   1.000000
     11          4.184243   1.000000
     12          4.184243   1.000000
     13          9.515280   0.000000
     14          9.515280   0.000000
     15          9.548190   0.000000
     16          9.548190   0.000000
     17         13.125912   0.000000
     18         13.532285   0.000000
     19         16.602623   0.000000
     20         16.689611   0.000000
     21         16.689611   0.000000
     22         18.309833   0.000000
     23         18.311772   0.000000
     24         19.584551   0.000000
     25         19.584551   0.000000
     26         22.089311   0.000000
     27         24.458122   0.000000
     28         26.296177   0.000000
