       N       E                     dE             d eps       ncg     rms          rms(c)
DAV:   1     0.191721144484E+02    0.19172E+02   -0.12881E+04   224   0.682E+02
DAV:   2    -0.244590069958E+02   -0.43631E+02   -0.43158E+02   308   0.104E+02
DAV:   3    -0.245325509073E+02   -0.73544E-01   -0.73539E-01   224   0.564E+00
DAV:   4    -0.245326327843E+02   -0.81877E-04   -0.81877E-04   364   0.150E-01
DAV:   5    -0.245326327903E+02   -0.59822E-08   -0.59313E-08   224   0.107E-03    0.467E+00
RMM:   6    -0.238250362881E+02    0.70760E+00   -0.37815E-01   224   0.324E+00    0.241E+00
RMM:   7    -0.235967298680E+02    0.22831E+00   -0.39644E-01   224   0.331E+00    0.439E-01
RMM:   8    -0.235954525089E+02    0.12774E-02   -0.13666E-02   224   0.715E-01    0.395E-02
RMM:   9    -0.235955600802E+02   -0.10757E-03   -0.88604E-04   224   0.204E-01    0.161E-02
RMM:  10    -0.235955588081E+02    0.12720E-05   -0.77622E-05   213   0.594E-02
   1 F= -.23595559E+02 E0= -.23583021E+02  d E =-.235956E+02
       N       E                     dE             d eps       ncg     rms          rms(c)
DAV:   1    -0.256910135817E+02   -0.20955E+01   -0.79601E+01   224   0.598E+01    0.709E+00
RMM:   2    -0.237943194229E+02    0.18967E+01   -0.13024E+00   224   0.608E+00    0.316E+00
RMM:   3    -0.234215294299E+02    0.37279E+00   -0.80405E-01   224   0.494E+00    0.494E-01
RMM:   4    -0.234339668560E+02   -0.12437E-01   -0.44167E-02   224   0.137E+00    0.502E-02
RMM:   5    -0.234343574578E+02   -0.39060E-03   -0.32014E-03   224   0.388E-01    0.251E-02
RMM:   6    -0.234344169486E+02   -0.59491E-04   -0.48472E-04   210   0.153E-01    0.205E-02
RMM:   7    -0.234344154119E+02    0.15367E-05   -0.13440E-04   202   0.783E-02    0.251E-03
RMM:   8    -0.234344199775E+02   -0.45656E-05   -0.29456E-05   159   0.365E-02
   2 F= -.23434420E+02 E0= -.23420053E+02  d E =0.161139E+00
       N       E                     dE             d eps       ncg     rms          rms(c)
DAV:   1    -0.247339044293E+02   -0.12995E+01   -0.35859E+01   224   0.375E+01    0.503E+00
RMM:   2    -0.238276157914E+02    0.90629E+00   -0.62918E-01   224   0.438E+00    0.234E+00
RMM:   3    -0.236258160713E+02    0.20180E+00   -0.43109E-01   224   0.362E+00    0.349E-01
RMM:   4    -0.236314692316E+02   -0.56532E-02   -0.20325E-02   224   0.958E-01    0.957E-02
RMM:   5    -0.236321076269E+02   -0.63840E-03   -0.11268E-03   224   0.231E-01    0.132E-02
RMM:   6    -0.236321151334E+02   -0.75065E-05   -0.13375E-04   209   0.797E-02    0.662E-03
RMM:   7    -0.236321136373E+02    0.14961E-05   -0.14001E-05   157   0.266E-02
   3 F= -.23632114E+02 E0= -.23619570E+02  d E =-.365548E-01
       N       E                     dE             d eps       ncg     rms          rms(c)
DAV:   1    -0.236322646601E+02   -0.14953E-03   -0.43201E-03   224   0.428E-01    0.536E-02
RMM:   2    -0.236321606088E+02    0.10405E-03   -0.69349E-05   217   0.455E-02    0.250E-02
RMM:   3    -0.236321376654E+02    0.22943E-04   -0.51354E-05   215   0.396E-02    0.331E-03
RMM:   4    -0.236321397695E+02   -0.21042E-05   -0.25948E-06   121   0.107E-02
   4 F= -.23632140E+02 E0= -.23619597E+02  d E =-.365810E-01
