  64  64   0   0
  0.1129557E+02  0.8932500E-09  0.9055600E-09  0.8937200E-09  0.5000000E-15
  1.000000000000000E-004
  CAR 
 HECN                                    
     15.06498673    -51.96446735  301      8.80968931      1.00000000
    -51.964  0.0000E+00  0.0000E+00
    -51.741  0.0000E+00  0.0000E+00
    -51.518  0.0000E+00  0.0000E+00
    -51.294  0.0000E+00  0.0000E+00
    -51.071  0.0000E+00  0.0000E+00
    -50.847  0.0000E+00  0.0000E+00
    -50.624  0.0000E+00  0.0000E+00
    -50.400  0.0000E+00  0.0000E+00
    -50.177  0.0000E+00  0.0000E+00
    -49.954  0.0000E+00  0.0000E+00
    -49.730  0.0000E+00  0.0000E+00
    -49.507  0.4969E-17  0.1110E-17
    -49.283  0.1043E-07  0.2331E-08
    -49.060  0.1995E-02  0.4458E-03
    -48.836  0.1152E+00  0.2619E-01
    -48.613  0.2234E+00  0.7611E-01
    -48.390  0.2459E+00  0.1311E+00
    -48.166  0.4000E-01  0.1400E+00
    -47.943  0.3628E-04  0.1400E+00
    -47.719  0.3456E-11  0.1400E+00
    -47.496  0.4289E-05  0.1400E+00
    -47.272  0.2610E-01  0.1458E+00
    -47.049  0.2055E+00  0.1917E+00
    -46.826  0.1768E+00  0.2312E+00
    -46.602  0.1195E+00  0.2579E+00
    -46.379  0.9254E-02  0.2600E+00
    -46.155  0.4317E-06  0.2600E+00
    -45.932  0.1491E-14  0.2600E+00
    -45.708  0.0000E+00  0.2600E+00
    -45.485  0.0000E+00  0.2600E+00
    -45.262  0.0000E+00  0.2600E+00
    -45.038  0.0000E+00  0.2600E+00
    -44.815  0.0000E+00  0.2600E+00
    -44.591  0.0000E+00  0.2600E+00
    -44.368  0.0000E+00  0.2600E+00
    -44.144  0.0000E+00  0.2600E+00
    -43.921  0.0000E+00  0.2600E+00
    -43.698  0.0000E+00  0.2600E+00
    -43.474  0.0000E+00  0.2600E+00
    -43.251  0.0000E+00  0.2600E+00
    -43.027  0.0000E+00  0.2600E+00
    -42.804  0.0000E+00  0.2600E+00
    -42.580  0.0000E+00  0.2600E+00
    -42.357  0.0000E+00  0.2600E+00
    -42.133  0.0000E+00  0.2600E+00
    -41.910  0.0000E+00  0.2600E+00
    -41.687  0.0000E+00  0.2600E+00
    -41.463  0.0000E+00  0.2600E+00
    -41.240  0.0000E+00  0.2600E+00
    -41.016  0.0000E+00  0.2600E+00
    -40.793  0.8054E-12  0.2600E+00
    -40.569  0.1650E-04  0.2600E+00
    -40.346  0.3079E-01  0.2669E+00
    -40.123  0.9374E-01  0.2878E+00
    -39.899  0.1558E+00  0.3226E+00
    -39.676  0.3120E+00  0.3923E+00
    -39.452  0.3424E-01  0.4000E+00
    -39.229  0.8371E-05  0.4000E+00
    -39.005  0.2271E-12  0.4000E+00
    -38.782  0.0000E+00  0.4000E+00
    -38.559  0.0000E+00  0.4000E+00
    -38.335  0.0000E+00  0.4000E+00
    -38.112  0.0000E+00  0.4000E+00
    -37.888  0.0000E+00  0.4000E+00
    -37.665  0.0000E+00  0.4000E+00
    -37.441  0.0000E+00  0.4000E+00
    -37.218  0.0000E+00  0.4000E+00
    -36.995  0.0000E+00  0.4000E+00
    -36.771  0.0000E+00  0.4000E+00
    -36.548  0.0000E+00  0.4000E+00
    -36.324  0.0000E+00  0.4000E+00
    -36.101  0.0000E+00  0.4000E+00
    -35.877  0.0000E+00  0.4000E+00
    -35.654  0.0000E+00  0.4000E+00
    -35.431  0.1647E-09  0.4000E+00
    -35.207  0.2768E-03  0.4001E+00
    -34.984  0.7037E-01  0.4158E+00
    -34.760  0.6726E+00  0.5661E+00
    -34.537  0.8351E+00  0.7527E+00
    -34.313  0.3287E-01  0.7600E+00
    -34.090  0.3506E-05  0.7600E+00
    -33.867  0.4510E-13  0.7600E+00
    -33.643  0.0000E+00  0.7600E+00
    -33.420  0.0000E+00  0.7600E+00
    -33.196  0.0000E+00  0.7600E+00
    -32.973  0.0000E+00  0.7600E+00
    -32.749  0.0000E+00  0.7600E+00
    -32.526  0.0000E+00  0.7600E+00
    -32.302  0.0000E+00  0.7600E+00
    -32.079  0.0000E+00  0.7600E+00
    -31.856  0.0000E+00  0.7600E+00
    -31.632  0.0000E+00  0.7600E+00
    -31.409  0.0000E+00  0.7600E+00
    -31.185  0.0000E+00  0.7600E+00
    -30.962  0.1097E-08  0.7600E+00
    -30.738  0.1060E-02  0.7602E+00
    -30.515  0.2555E+00  0.8173E+00
    -30.292  0.9095E+00  0.1021E+01
    -30.068  0.4219E+00  0.1115E+01
    -29.845  0.2322E-01  0.1120E+01
    -29.621  0.2388E-05  0.1120E+01
    -29.398  0.2593E-13  0.1120E+01
    -29.174  0.0000E+00  0.1120E+01
    -28.951  0.0000E+00  0.1120E+01
    -28.728  0.0000E+00  0.1120E+01
    -28.504  0.0000E+00  0.1120E+01
    -28.281  0.0000E+00  0.1120E+01
    -28.057  0.0000E+00  0.1120E+01
    -27.834  0.0000E+00  0.1120E+01
    -27.610  0.0000E+00  0.1120E+01
    -27.387  0.0000E+00  0.1120E+01
    -27.164  0.0000E+00  0.1120E+01
    -26.940  0.0000E+00  0.1120E+01
    -26.717  0.0000E+00  0.1120E+01
    -26.493  0.0000E+00  0.1120E+01
    -26.270  0.0000E+00  0.1120E+01
    -26.046  0.0000E+00  0.1120E+01
    -25.823  0.2326E-11  0.1120E+01
    -25.600  0.3474E-04  0.1120E+01
    -25.376  0.6933E-01  0.1135E+01
    -25.153  0.4501E+00  0.1236E+01
    -24.929  0.7421E+00  0.1402E+01
    -24.706  0.5783E+00  0.1531E+01
    -24.482  0.3992E-01  0.1540E+01
    -24.259  0.8441E-05  0.1540E+01
    -24.036  0.3149E-12  0.1540E+01
    -23.812  0.4867E-05  0.1540E+01
    -23.589  0.2225E-01  0.1545E+01
    -23.365  0.2453E+00  0.1600E+01
    -23.142  0.6025E+00  0.1734E+01
    -22.918  0.4585E+00  0.1837E+01
    -22.695  0.2661E+00  0.1896E+01
    -22.472  0.1650E-01  0.1900E+01
    -22.248  0.7558E-06  0.1900E+01
    -22.025  0.3223E-14  0.1900E+01
    -21.801  0.0000E+00  0.1900E+01
    -21.578  0.0000E+00  0.1900E+01
    -21.354  0.0000E+00  0.1900E+01
    -21.131  0.0000E+00  0.1900E+01
    -20.907  0.0000E+00  0.1900E+01
    -20.684  0.0000E+00  0.1900E+01
    -20.461  0.0000E+00  0.1900E+01
    -20.237  0.0000E+00  0.1900E+01
    -20.014  0.0000E+00  0.1900E+01
    -19.790  0.0000E+00  0.1900E+01
    -19.567  0.0000E+00  0.1900E+01
    -19.343  0.0000E+00  0.1900E+01
    -19.120  0.2836E-08  0.1900E+01
    -18.897  0.1120E-02  0.1900E+01
    -18.673  0.1229E+00  0.1928E+01
    -18.450  0.2955E+00  0.1994E+01
    -18.226  0.6866E+00  0.2147E+01
    -18.003  0.5655E+00  0.2273E+01
    -17.779  0.1812E+00  0.2314E+01
    -17.556  0.2691E-01  0.2320E+01
    -17.333  0.9810E-05  0.2320E+01
    -17.109  0.3189E-12  0.2320E+01
    -16.886  0.0000E+00  0.2320E+01
    -16.662  0.0000E+00  0.2320E+01
    -16.439  0.0000E+00  0.2320E+01
    -16.215  0.0000E+00  0.2320E+01
    -15.992  0.0000E+00  0.2320E+01
    -15.769  0.0000E+00  0.2320E+01
    -15.545  0.0000E+00  0.2320E+01
    -15.322  0.0000E+00  0.2320E+01
    -15.098  0.0000E+00  0.2320E+01
    -14.875  0.0000E+00  0.2320E+01
    -14.651  0.0000E+00  0.2320E+01
    -14.428  0.0000E+00  0.2320E+01
    -14.205  0.0000E+00  0.2320E+01
    -13.981  0.0000E+00  0.2320E+01
    -13.758  0.0000E+00  0.2320E+01
    -13.534  0.0000E+00  0.2320E+01
    -13.311  0.0000E+00  0.2320E+01
    -13.087  0.0000E+00  0.2320E+01
    -12.864  0.0000E+00  0.2320E+01
    -12.641  0.0000E+00  0.2320E+01
    -12.417  0.0000E+00  0.2320E+01
    -12.194  0.0000E+00  0.2320E+01
    -11.970  0.0000E+00  0.2320E+01
    -11.747  0.0000E+00  0.2320E+01
    -11.523  0.0000E+00  0.2320E+01
    -11.300  0.0000E+00  0.2320E+01
    -11.077  0.0000E+00  0.2320E+01
    -10.853  0.0000E+00  0.2320E+01
    -10.630  0.0000E+00  0.2320E+01
    -10.406  0.0000E+00  0.2320E+01
    -10.183  0.0000E+00  0.2320E+01
     -9.959  0.0000E+00  0.2320E+01
     -9.736  0.0000E+00  0.2320E+01
     -9.512  0.0000E+00  0.2320E+01
     -9.289  0.0000E+00  0.2320E+01
     -9.066  0.0000E+00  0.2320E+01
     -8.842  0.0000E+00  0.2320E+01
     -8.619  0.0000E+00  0.2320E+01
     -8.395  0.0000E+00  0.2320E+01
     -8.172  0.0000E+00  0.2320E+01
     -7.948  0.1656E-16  0.2320E+01
     -7.725  0.8847E-08  0.2320E+01
     -7.502  0.6109E-03  0.2320E+01
     -7.278  0.4973E-01  0.2331E+01
     -7.055  0.6835E-01  0.2347E+01
     -6.831  0.7473E-01  0.2363E+01
     -6.608  0.1142E+00  0.2389E+01
     -6.384  0.7862E-01  0.2406E+01
     -6.161  0.1841E+00  0.2447E+01
     -5.938  0.2335E+00  0.2500E+01
     -5.714  0.2328E+00  0.2552E+01
     -5.491  0.9699E-01  0.2573E+01
     -5.267  0.3011E-01  0.2580E+01
     -5.044  0.1558E-04  0.2580E+01
     -4.820  0.7562E-12  0.2580E+01
     -4.597  0.5014E-10  0.2580E+01
     -4.374  0.4395E-04  0.2580E+01
     -4.150  0.1383E-01  0.2583E+01
     -3.927  0.6276E-01  0.2597E+01
     -3.703  0.1941E-01  0.2601E+01
     -3.480  0.7829E-01  0.2619E+01
     -3.256  0.7712E-01  0.2636E+01
     -3.033  0.1249E+00  0.2664E+01
     -2.810  0.2013E+00  0.2709E+01
     -2.586  0.2121E+00  0.2756E+01
     -2.363  0.2313E+00  0.2808E+01
     -2.139  0.2090E+00  0.2855E+01
     -1.916  0.1536E+00  0.2889E+01
     -1.692  0.1528E+00  0.2923E+01
     -1.469  0.1073E+00  0.2947E+01
     -1.246  0.4508E-01  0.2957E+01
     -1.022  0.1186E-01  0.2960E+01
     -0.799  0.1085E-03  0.2960E+01
     -0.575  0.5513E-09  0.2960E+01
     -0.352  0.0000E+00  0.2960E+01
     -0.128  0.0000E+00  0.2960E+01
      0.095  0.0000E+00  0.2960E+01
      0.319  0.2927E-13  0.2960E+01
      0.542  0.6046E-06  0.2960E+01
      0.765  0.1140E-02  0.2960E+01
      0.989  0.8433E-02  0.2962E+01
      1.212  0.3744E-01  0.2971E+01
      1.436  0.9860E-01  0.2993E+01
      1.659  0.1036E+00  0.3016E+01
      1.883  0.1667E+00  0.3053E+01
      2.106  0.1847E+00  0.3094E+01
      2.329  0.2797E+00  0.3157E+01
      2.553  0.2953E+00  0.3223E+01
      2.776  0.2588E+00  0.3281E+01
      3.000  0.3388E+00  0.3356E+01
      3.223  0.3801E+00  0.3441E+01
      3.447  0.4139E+00  0.3534E+01
      3.670  0.4863E+00  0.3642E+01
      3.893  0.5698E+00  0.3770E+01
      4.117  0.6015E+00  0.3904E+01
      4.340  0.5962E+00  0.4037E+01
      4.564  0.5933E+00  0.4170E+01
      4.787  0.5383E+00  0.4290E+01
      5.011  0.5144E+00  0.4405E+01
      5.234  0.4643E+00  0.4509E+01
      5.457  0.3916E+00  0.4596E+01
      5.681  0.3279E+00  0.4669E+01
      5.904  0.2925E+00  0.4735E+01
      6.128  0.2461E+00  0.4790E+01
      6.351  0.1867E+00  0.4831E+01
      6.575  0.1528E+00  0.4866E+01
      6.798  0.7184E-01  0.4882E+01
      7.021  0.1262E+00  0.4910E+01
      7.245  0.1641E+00  0.4947E+01
      7.468  0.1634E+00  0.4983E+01
      7.692  0.2298E+00  0.5034E+01
      7.915  0.2260E+00  0.5085E+01
      8.139  0.2035E+00  0.5130E+01
      8.362  0.2652E+00  0.5190E+01
      8.585  0.2898E+00  0.5254E+01
      8.809  0.2485E+00  0.5310E+01
      9.032  0.2619E+00  0.5368E+01
      9.256  0.3431E+00  0.5445E+01
      9.479  0.4214E+00  0.5539E+01
      9.703  0.4577E+00  0.5641E+01
      9.926  0.4988E+00  0.5753E+01
     10.149  0.5129E+00  0.5867E+01
     10.373  0.5313E+00  0.5986E+01
     10.596  0.5127E+00  0.6101E+01
     10.820  0.5231E+00  0.6218E+01
     11.043  0.5049E+00  0.6330E+01
     11.267  0.5024E+00  0.6443E+01
     11.490  0.5287E+00  0.6561E+01
     11.714  0.4339E+00  0.6658E+01
     11.937  0.2359E+00  0.6710E+01
     12.160  0.4248E-01  0.6720E+01
     12.384  0.3403E-03  0.6720E+01
     12.607  0.1095E-08  0.6720E+01
     12.831  0.0000E+00  0.6720E+01
     13.054  0.0000E+00  0.6720E+01
     13.278  0.0000E+00  0.6720E+01
     13.501  0.0000E+00  0.6720E+01
     13.724  0.0000E+00  0.6720E+01
     13.948  0.0000E+00  0.6720E+01
     14.171  0.0000E+00  0.6720E+01
     14.395  0.0000E+00  0.6720E+01
     14.618  0.0000E+00  0.6720E+01
     14.842  0.0000E+00  0.6720E+01
     15.065  0.0000E+00  0.6720E+01
