       N       E                     dE             d eps       ncg     rms          rms(c)
DAV:   1     0.719543900581E+04    0.71954E+04   -0.21461E+05  9552   0.152E+03
DAV:   2     0.512534404662E+03   -0.66829E+04   -0.64460E+04  9432   0.634E+02
DAV:   3    -0.616806073810E+03   -0.11293E+04   -0.10436E+04 14760   0.224E+02
DAV:   4    -0.763785618446E+03   -0.14698E+03   -0.14262E+03 16944   0.976E+01
DAV:   5    -0.783498427949E+03   -0.19713E+02   -0.19351E+02 18816   0.327E+01    0.777E+01
RMM:   6    -0.938308691704E+03   -0.15481E+03   -0.23021E+03 12772   0.126E+02    0.127E+02
RMM:   7    -0.646634564269E+03    0.29167E+03   -0.25297E+02 15324   0.353E+01    0.488E+01
RMM:   8    -0.639462310520E+03    0.71723E+01   -0.63181E+01 15094   0.182E+01    0.302E+01
RMM:   9    -0.634812133889E+03    0.46502E+01   -0.24697E+01 15285   0.110E+01    0.260E+01
RMM:  10    -0.632547194595E+03    0.22649E+01   -0.12629E+01 15553   0.737E+00    0.142E+01
RMM:  11    -0.634601716939E+03   -0.20545E+01   -0.72398E+00 14057   0.725E+00    0.266E+01
RMM:  12    -0.632512398561E+03    0.20893E+01   -0.55210E+00 15023   0.519E+00    0.151E+01
RMM:  13    -0.632002957840E+03    0.50944E+00   -0.41422E+00 15257   0.355E+00    0.137E+01
RMM:  14    -0.631672356238E+03    0.33060E+00   -0.18900E+00 15131   0.367E+00    0.955E+00
RMM:  15    -0.631842934401E+03   -0.17058E+00   -0.16497E+00 14571   0.296E+00    0.115E+01
RMM:  16    -0.631467633183E+03    0.37530E+00   -0.88217E-01 14201   0.248E+00    0.649E+00
RMM:  17    -0.631422383875E+03    0.45249E-01   -0.69769E-01 15018   0.160E+00    0.420E+00
RMM:  18    -0.631471366470E+03   -0.48983E-01   -0.40737E-01 15258   0.154E+00    0.493E+00
RMM:  19    -0.631411032800E+03    0.60334E-01   -0.36188E-01 15061   0.105E+00    0.189E+00
RMM:  20    -0.631394918657E+03    0.16114E-01   -0.20625E-01 14801   0.811E-01    0.958E-01
RMM:  21    -0.631394399688E+03    0.51897E-03   -0.11070E-01 15080   0.662E-01    0.535E-01
RMM:  22    -0.631397477731E+03   -0.30780E-02   -0.73614E-02 15239   0.452E-01    0.220E-01
RMM:  23    -0.631400669807E+03   -0.31921E-02   -0.47201E-02 15229   0.357E-01    0.170E-01
RMM:  24    -0.631402909352E+03   -0.22395E-02   -0.28123E-02 14876   0.275E-01    0.128E-01
RMM:  25    -0.631404362251E+03   -0.14529E-02   -0.18345E-02 14835   0.198E-01    0.757E-02
RMM:  26    -0.631405354085E+03   -0.99183E-03   -0.12011E-02 14138   0.161E-01    0.488E-02
RMM:  27    -0.631405995103E+03   -0.64102E-03   -0.78846E-03 13065   0.130E-01    0.429E-02
RMM:  28    -0.631406461174E+03   -0.46607E-03   -0.54897E-03 12721   0.107E-01    0.267E-02
RMM:  29    -0.631406771966E+03   -0.31079E-03   -0.36053E-03 12596   0.894E-02    0.138E-02
RMM:  30    -0.631406989820E+03   -0.21785E-03   -0.25199E-03 12067   0.713E-02    0.187E-02
RMM:  31    -0.631407140265E+03   -0.15045E-03   -0.17465E-03 12026   0.599E-02    0.123E-02
RMM:  32    -0.631407246958E+03   -0.10669E-03   -0.12326E-03 12061   0.507E-02    0.768E-03
RMM:  33    -0.631407320572E+03   -0.73614E-04   -0.85659E-04 11814   0.425E-02    0.620E-03
RMM:  34    -0.631407374252E+03   -0.53680E-04   -0.61885E-04 11760   0.357E-02    0.535E-03
RMM:  35    -0.631407412291E+03   -0.38039E-04   -0.43549E-04 11640   0.310E-02    0.397E-03
RMM:  36    -0.631407438469E+03   -0.26178E-04   -0.31634E-04 11289   0.261E-02    0.724E-03
RMM:  37    -0.631407457830E+03   -0.19361E-04   -0.22204E-04 10968   0.225E-02    0.106E-03
RMM:  38    -0.631407470964E+03   -0.13134E-04   -0.16215E-04 10550   0.196E-02    0.725E-03
RMM:  39    -0.631407480519E+03   -0.95549E-05   -0.11639E-04  9994   0.171E-02    0.941E-03
RMM:  40    -0.631407487139E+03   -0.66198E-05   -0.83594E-05  9575   0.153E-02
   1 F= -.63140749E+03 E0= -.63131955E+03  d E =-.631407E+03
       N       E                     dE             d eps       ncg     rms          rms(c)
DAV:   1    -0.686710043707E+03   -0.55303E+02   -0.23843E+03 13416   0.209E+02    0.600E+01
RMM:   2    -0.812468823612E+03   -0.12576E+03   -0.97545E+02 11447   0.114E+02    0.985E+01
RMM:   3    -0.642094457725E+03    0.17037E+03   -0.88375E+01 13636   0.309E+01    0.341E+01
RMM:   4    -0.645678260642E+03   -0.35838E+01   -0.36745E+01 12853   0.201E+01    0.409E+01
RMM:   5    -0.636767864486E+03    0.89104E+01   -0.20951E+01 12312   0.160E+01    0.273E+01
RMM:   6    -0.634595500872E+03    0.21724E+01   -0.14102E+01 14359   0.849E+00    0.223E+01
RMM:   7    -0.631908015663E+03    0.26875E+01   -0.41793E+00 13732   0.629E+00    0.104E+01
RMM:   8    -0.632440668720E+03   -0.53265E+00   -0.18321E+00 13861   0.364E+00    0.137E+01
RMM:   9    -0.631431818689E+03    0.10089E+01   -0.77808E-01 13399   0.298E+00    0.338E+00
RMM:  10    -0.631582597183E+03   -0.15078E+00   -0.58584E-01 15843   0.158E+00    0.516E+00
RMM:  11    -0.631513139533E+03    0.69458E-01   -0.28319E-01 15948   0.139E+00    0.212E+00
RMM:  12    -0.631597142262E+03   -0.84003E-01   -0.29713E-01 15699   0.106E+00    0.279E+00
RMM:  13    -0.631611747791E+03   -0.14606E-01   -0.16411E-01 15510   0.981E-01    0.249E+00
RMM:  14    -0.631622839035E+03   -0.11091E-01   -0.15566E-01 15633   0.884E-01    0.815E-01
RMM:  15    -0.631640604039E+03   -0.17765E-01   -0.12540E-01 16248   0.632E-01    0.412E-01
RMM:  16    -0.631649974431E+03   -0.93704E-02   -0.82641E-02 16209   0.537E-01    0.394E-01
RMM:  17    -0.631652761539E+03   -0.27871E-02   -0.47725E-02 16182   0.404E-01    0.156E-01
RMM:  18    -0.631654973284E+03   -0.22117E-02   -0.28631E-02 16312   0.306E-01    0.120E-01
RMM:  19    -0.631656349661E+03   -0.13764E-02   -0.17318E-02 15964   0.228E-01    0.596E-02
RMM:  20    -0.631657236773E+03   -0.88711E-03   -0.10860E-02 15200   0.174E-01    0.383E-02
RMM:  21    -0.631657729592E+03   -0.49282E-03   -0.62690E-03 14606   0.138E-01    0.336E-02
RMM:  22    -0.631658059278E+03   -0.32969E-03   -0.39549E-03 14201   0.107E-01    0.319E-02
RMM:  23    -0.631658248254E+03   -0.18898E-03   -0.23724E-03 13589   0.881E-02    0.154E-02
RMM:  24    -0.631658389030E+03   -0.14078E-03   -0.16380E-03 13020   0.668E-02    0.181E-02
RMM:  25    -0.631658467191E+03   -0.78161E-04   -0.93724E-04 12840   0.563E-02    0.811E-03
RMM:  26    -0.631658520833E+03   -0.53643E-04   -0.64465E-04 12375   0.448E-02    0.110E-02
RMM:  27    -0.631658554874E+03   -0.34041E-04   -0.38792E-04 12304   0.376E-02    0.984E-03
RMM:  28    -0.631658577397E+03   -0.22523E-04   -0.29169E-04 11789   0.316E-02    0.276E-02
RMM:  29    -0.631658590995E+03   -0.13597E-04   -0.16776E-04 11580   0.260E-02    0.244E-02
RMM:  30    -0.631658600250E+03   -0.92547E-05   -0.11395E-04 10594   0.211E-02    0.280E-02
RMM:  31    -0.631658606297E+03   -0.60475E-05   -0.74409E-05 10542   0.181E-02
   2 F= -.63165861E+03 E0= -.63158902E+03  d E =-.251119E+00
       N       E                     dE             d eps       ncg     rms          rms(c)
DAV:   1    -0.648705794148E+03   -0.17047E+02   -0.55448E+02 13440   0.971E+01    0.408E+01
RMM:   2    -0.766771335074E+03   -0.11807E+03   -0.13673E+02 14807   0.333E+01    0.686E+01
RMM:   3    -0.642688404629E+03    0.12408E+03   -0.44476E+01 12820   0.285E+01    0.284E+01
RMM:   4    -0.644117731987E+03   -0.14293E+01   -0.28116E+01 13281   0.162E+01    0.360E+01
RMM:   5    -0.638835376860E+03    0.52824E+01   -0.12255E+01 13630   0.106E+01    0.241E+01
RMM:   6    -0.636980253615E+03    0.18551E+01   -0.43356E+00 13131   0.654E+00    0.222E+01
RMM:   7    -0.634887343496E+03    0.20929E+01   -0.23286E+00 13882   0.469E+00    0.900E+00
RMM:   8    -0.634510131385E+03    0.37721E+00   -0.99591E-01 14357   0.269E+00    0.596E+00
RMM:   9    -0.634471001838E+03    0.39130E-01   -0.36025E-01 14376   0.175E+00    0.535E+00
RMM:  10    -0.634375239795E+03    0.95762E-01   -0.18585E-01 14881   0.120E+00    0.297E+00
RMM:  11    -0.634367346289E+03    0.78935E-02   -0.10279E-01 14755   0.899E-01    0.272E+00
RMM:  12    -0.634339714317E+03    0.27632E-01   -0.86065E-02 14136   0.860E-01    0.964E-01
RMM:  13    -0.634353053673E+03   -0.13339E-01   -0.67944E-02 15639   0.483E-01    0.130E+00
RMM:  14    -0.634353465424E+03   -0.41175E-03   -0.31235E-02 16192   0.443E-01    0.101E+00
RMM:  15    -0.634354387861E+03   -0.92244E-03   -0.37735E-02 15738   0.345E-01    0.524E-01
RMM:  16    -0.634357379707E+03   -0.29918E-02   -0.15943E-02 15528   0.337E-01    0.494E-01
RMM:  17    -0.634359873487E+03   -0.24938E-02   -0.19305E-02 15646   0.219E-01    0.218E-01
RMM:  18    -0.634360775635E+03   -0.90215E-03   -0.10899E-02 15423   0.200E-01    0.199E-01
RMM:  19    -0.634361132233E+03   -0.35660E-03   -0.75465E-03 14872   0.180E-01    0.540E-02
RMM:  20    -0.634361566597E+03   -0.43436E-03   -0.53125E-03 14074   0.120E-01    0.566E-02
RMM:  21    -0.634361782992E+03   -0.21640E-03   -0.30816E-03 13492   0.879E-02    0.488E-02
RMM:  22    -0.634361891813E+03   -0.10882E-03   -0.15912E-03 13019   0.745E-02    0.200E-02
RMM:  23    -0.634361987420E+03   -0.95607E-04   -0.11608E-03 12778   0.566E-02    0.126E-02
RMM:  24    -0.634362036080E+03   -0.48659E-04   -0.63703E-04 12301   0.482E-02    0.109E-02
RMM:  25    -0.634362072903E+03   -0.36823E-04   -0.45114E-04 12177   0.361E-02    0.658E-03
RMM:  26    -0.634362093150E+03   -0.20247E-04   -0.25891E-04 12041   0.319E-02    0.610E-03
RMM:  27    -0.634362107395E+03   -0.14245E-04   -0.18161E-04 11574   0.250E-02    0.449E-03
RMM:  28    -0.634362117621E+03   -0.10226E-04   -0.11539E-04 11428   0.222E-02    0.647E-03
RMM:  29    -0.634362121896E+03   -0.42753E-05   -0.74115E-05 10392   0.185E-02
   3 F= -.63436212E+03 E0= -.63428482E+03  d E =-.295463E+01
       N       E                     dE             d eps       ncg     rms          rms(c)
DAV:   1    -0.627822141144E+03    0.65400E+01   -0.55046E+02  9864   0.914E+01    0.120E+01
RMM:   2    -0.655673212769E+03   -0.27851E+02   -0.97712E+01 15280   0.276E+01    0.392E+01
RMM:   3    -0.636591672692E+03    0.19082E+02   -0.14531E+01 11531   0.162E+01    0.131E+01
RMM:   4    -0.636067204440E+03    0.52447E+00   -0.50366E+00 15258   0.511E+00    0.654E+00
RMM:   5    -0.635847344839E+03    0.21986E+00   -0.10652E+00 14295   0.307E+00    0.588E+00
RMM:   6    -0.635792345214E+03    0.55000E-01   -0.54427E-01 14991   0.162E+00    0.438E+00
RMM:   7    -0.635699920871E+03    0.92424E-01   -0.25349E-01 14912   0.138E+00    0.262E+00
RMM:   8    -0.635809794679E+03   -0.10987E+00   -0.21239E-01 14673   0.118E+00    0.578E+00
RMM:   9    -0.635664871672E+03    0.14492E+00   -0.16572E-01 14746   0.122E+00    0.187E+00
RMM:  10    -0.635686352483E+03   -0.21481E-01   -0.10276E-01 15209   0.800E-01    0.282E+00
RMM:  11    -0.635653794806E+03    0.32558E-01   -0.52050E-02 15305   0.640E-01    0.726E-01
RMM:  12    -0.635660312563E+03   -0.65178E-02   -0.42037E-02 15191   0.361E-01    0.122E+00
RMM:  13    -0.635655175987E+03    0.51366E-02   -0.19594E-02 15150   0.321E-01    0.418E-01
RMM:  14    -0.635655728505E+03   -0.55252E-03   -0.17237E-02 15284   0.195E-01    0.163E-01
RMM:  15    -0.635656323799E+03   -0.59529E-03   -0.79417E-03 15091   0.164E-01    0.116E-01
RMM:  16    -0.635656799389E+03   -0.47559E-03   -0.54414E-03 14858   0.122E-01    0.689E-02
RMM:  17    -0.635657027057E+03   -0.22767E-03   -0.33563E-03 13958   0.956E-02    0.324E-02
RMM:  18    -0.635657192523E+03   -0.16547E-03   -0.21235E-03 12944   0.743E-02    0.244E-02
RMM:  19    -0.635657299014E+03   -0.10649E-03   -0.13485E-03 12405   0.589E-02    0.195E-02
RMM:  20    -0.635657371486E+03   -0.72471E-04   -0.89034E-04 12154   0.478E-02    0.124E-02
RMM:  21    -0.635657418539E+03   -0.47054E-04   -0.57916E-04 11969   0.390E-02    0.620E-03
RMM:  22    -0.635657450989E+03   -0.32450E-04   -0.39062E-04 11913   0.322E-02    0.439E-03
RMM:  23    -0.635657472275E+03   -0.21285E-04   -0.25876E-04 11750   0.269E-02    0.331E-03
RMM:  24    -0.635657486498E+03   -0.14223E-04   -0.17381E-04 11414   0.224E-02    0.226E-03
RMM:  25    -0.635657496315E+03   -0.98179E-05   -0.11867E-04 10959   0.190E-02    0.128E-03
RMM:  26    -0.635657502432E+03   -0.61165E-05   -0.76348E-05 10232   0.166E-02
   4 F= -.63565750E+03 E0= -.63558118E+03  d E =-.129538E+01
       N       E                     dE             d eps       ncg     rms          rms(c)
DAV:   1    -0.635597901417E+03    0.59595E-01   -0.49902E+00 10440   0.877E+00    0.104E+00
RMM:   2    -0.635901745070E+03   -0.30384E+00   -0.96140E-01 15113   0.281E+00    0.668E+00
RMM:   3    -0.635692698204E+03    0.20905E+00   -0.13155E-01 11677   0.145E+00    0.219E+00
RMM:   4    -0.635676205490E+03    0.16493E-01   -0.49346E-02 14405   0.588E-01    0.887E-01
RMM:   5    -0.635674665065E+03    0.15404E-02   -0.13669E-02 14641   0.304E-01    0.881E-01
RMM:   6    -0.635671390253E+03    0.32748E-02   -0.47864E-03 13986   0.193E-01    0.324E-01
RMM:   7    -0.635671144115E+03    0.24614E-03   -0.33622E-03 14385   0.127E-01    0.374E-01
RMM:   8    -0.635671047304E+03    0.96811E-04   -0.17059E-03 13371   0.136E-01    0.359E-01
RMM:   9    -0.635670803445E+03    0.24386E-03   -0.20889E-03 14535   0.112E-01    0.335E-01
RMM:  10    -0.635670418257E+03    0.38519E-03   -0.77413E-04 12847   0.946E-02    0.150E-01
RMM:  11    -0.635670382664E+03    0.35593E-04   -0.65293E-04 13121   0.523E-02    0.812E-02
RMM:  12    -0.635670413706E+03   -0.31042E-04   -0.31397E-04 12172   0.474E-02    0.986E-02
RMM:  13    -0.635670388025E+03    0.25681E-04   -0.22575E-04 11928   0.291E-02    0.208E-02
RMM:  14    -0.635670401658E+03   -0.13634E-04   -0.14315E-04 10957   0.236E-02    0.141E-02
RMM:  15    -0.635670411390E+03   -0.97316E-05   -0.77502E-05 10615   0.192E-02
   5 F= -.63567041E+03 E0= -.63559413E+03  d E =-.130829E+01
       N       E                     dE             d eps       ncg     rms          rms(c)
DAV:   1    -0.634121143421E+03    0.15493E+01   -0.88703E+01 10296   0.481E+01    0.265E+00
RMM:   2    -0.636467801963E+03   -0.23467E+01   -0.20122E+01 15243   0.110E+01    0.103E+01
RMM:   3    -0.636044839455E+03    0.42296E+00   -0.14768E+00 11635   0.506E+00    0.364E+00
RMM:   4    -0.636119913509E+03   -0.75074E-01   -0.53499E-01 14734   0.192E+00    0.464E+00
RMM:   5    -0.636019999731E+03    0.99914E-01   -0.13555E-01 14703   0.110E+00    0.202E+00
RMM:   6    -0.636012688619E+03    0.73111E-02   -0.81941E-02 15441   0.560E-01    0.136E+00
RMM:   7    -0.636002871044E+03    0.98176E-02   -0.40198E-02 14955   0.511E-01    0.919E-01
RMM:   8    -0.636019367859E+03   -0.16497E-01   -0.36126E-02 14639   0.508E-01    0.226E+00
RMM:   9    -0.635995981883E+03    0.23386E-01   -0.27539E-02 14716   0.486E-01    0.283E-01
RMM:  10    -0.635996917850E+03   -0.93597E-03   -0.15308E-02 15086   0.226E-01    0.337E-01
RMM:  11    -0.635996898269E+03    0.19581E-04   -0.49994E-03 13935   0.216E-01    0.276E-01
RMM:  12    -0.635996807848E+03    0.90420E-04   -0.55158E-03 14397   0.120E-01    0.794E-02
RMM:  13    -0.635996989061E+03   -0.18121E-03   -0.28331E-03 14160   0.108E-01    0.985E-02
RMM:  14    -0.635997154407E+03   -0.16535E-03   -0.16761E-03 12964   0.845E-02    0.128E-01
RMM:  15    -0.635997181873E+03   -0.27466E-04   -0.12137E-03 12532   0.624E-02    0.346E-02
RMM:  16    -0.635997238545E+03   -0.56672E-04   -0.78595E-04 12054   0.483E-02    0.229E-02
RMM:  17    -0.635997270778E+03   -0.32233E-04   -0.47101E-04 11886   0.411E-02    0.970E-03
RMM:  18    -0.635997294819E+03   -0.24041E-04   -0.31245E-04 11484   0.315E-02    0.672E-03
RMM:  19    -0.635997312095E+03   -0.17276E-04   -0.21006E-04 11460   0.260E-02    0.415E-03
RMM:  20    -0.635997322407E+03   -0.10312E-04   -0.13387E-04 10840   0.228E-02    0.283E-03
RMM:  21    -0.635997329772E+03   -0.73655E-05   -0.92204E-05 10754   0.188E-02
   6 F= -.63599733E+03 E0= -.63592408E+03  d E =-.326918E+00
       N       E                     dE             d eps       ncg     rms          rms(c)
DAV:   1    -0.635605267600E+03    0.39205E+00   -0.20142E+01 10272   0.229E+01    0.124E+00
RMM:   2    -0.636104367774E+03   -0.49910E+00   -0.45696E+00 15234   0.523E+00    0.391E+00
RMM:   3    -0.636052079787E+03    0.52288E-01   -0.33586E-01 11613   0.240E+00    0.204E+00
RMM:   4    -0.636066757986E+03   -0.14678E-01   -0.12203E-01 14661   0.902E-01    0.230E+00
RMM:   5    -0.636041526268E+03    0.25232E-01   -0.29682E-02 14486   0.533E-01    0.908E-01
RMM:   6    -0.636040625698E+03    0.90057E-03   -0.19667E-02 15018   0.270E-01    0.688E-01
RMM:   7    -0.636038601332E+03    0.20244E-02   -0.94038E-03 14890   0.253E-01    0.521E-01
RMM:   8    -0.636040815578E+03   -0.22142E-02   -0.78123E-03 14325   0.238E-01    0.905E-01
RMM:   9    -0.636036986293E+03    0.38293E-02   -0.68968E-03 14706   0.235E-01    0.271E-01
RMM:  10    -0.636037403433E+03   -0.41714E-03   -0.34700E-03 14303   0.141E-01    0.349E-01
RMM:  11    -0.636036896470E+03    0.50696E-03   -0.16851E-03 13632   0.107E-01    0.698E-02
RMM:  12    -0.636037036111E+03   -0.13964E-03   -0.13547E-03 13047   0.668E-02    0.143E-01
RMM:  13    -0.636036974710E+03    0.61401E-04   -0.61998E-04 12667   0.639E-02    0.485E-02
RMM:  14    -0.636037010136E+03   -0.35426E-04   -0.55903E-04 12131   0.386E-02    0.234E-02
RMM:  15    -0.636037028582E+03   -0.18446E-04   -0.29727E-04 11736   0.358E-02    0.145E-02
RMM:  16    -0.636037042414E+03   -0.13832E-04   -0.20085E-04 11301   0.263E-02    0.760E-03
RMM:  17    -0.636037052009E+03   -0.95953E-05   -0.13462E-04 11056   0.226E-02    0.462E-03
RMM:  18    -0.636037057481E+03   -0.54721E-05   -0.83158E-05 10307   0.203E-02
   7 F= -.63603706E+03 E0= -.63596504E+03  d E =-.366646E+00
       N       E                     dE             d eps       ncg     rms          rms(c)
DAV:   1    -0.634546372136E+03    0.14907E+01   -0.73307E+01 11088   0.471E+01    0.372E+00
RMM:   2    -0.637904530460E+03   -0.33582E+01   -0.19918E+01 15195   0.110E+01    0.157E+01
RMM:   3    -0.636280971414E+03    0.16236E+01   -0.19442E+00 11917   0.553E+00    0.475E+00
RMM:   4    -0.636324033787E+03   -0.43062E-01   -0.71246E-01 14964   0.188E+00    0.486E+00
RMM:   5    -0.636211339343E+03    0.11269E+00   -0.14236E-01 14078   0.120E+00    0.185E+00
RMM:   6    -0.636209450748E+03    0.18886E-02   -0.86631E-02 15204   0.618E-01    0.194E+00
RMM:   7    -0.636194144895E+03    0.15306E-01   -0.49758E-02 14774   0.634E-01    0.136E+00
RMM:   8    -0.636206531732E+03   -0.12387E-01   -0.41416E-02 14366   0.564E-01    0.215E+00
RMM:   9    -0.636182669154E+03    0.23863E-01   -0.29946E-02 14666   0.522E-01    0.314E-01
RMM:  10    -0.636184155888E+03   -0.14867E-02   -0.15172E-02 15048   0.240E-01    0.530E-01
RMM:  11    -0.636183383749E+03    0.77214E-03   -0.58195E-03 14725   0.206E-01    0.222E-01
RMM:  12    -0.636183783258E+03   -0.39951E-03   -0.58747E-03 14445   0.112E-01    0.184E-01
RMM:  13    -0.636183871971E+03   -0.88713E-04   -0.23195E-03 13711   0.105E-01    0.141E-01
RMM:  14    -0.636184063123E+03   -0.19115E-03   -0.19488E-03 13863   0.714E-02    0.760E-02
RMM:  15    -0.636184244293E+03   -0.18117E-03   -0.11711E-03 13389   0.690E-02    0.423E-02
RMM:  16    -0.636184335281E+03   -0.90988E-04   -0.85448E-04 13121   0.544E-02    0.208E-02
RMM:  17    -0.636184377134E+03   -0.41853E-04   -0.52194E-04 12267   0.443E-02    0.134E-02
RMM:  18    -0.636184404111E+03   -0.26976E-04   -0.33932E-04 11860   0.338E-02    0.111E-02
RMM:  19    -0.636184421197E+03   -0.17087E-04   -0.21059E-04 11631   0.274E-02    0.720E-03
RMM:  20    -0.636184433450E+03   -0.12253E-04   -0.14165E-04 11341   0.221E-02    0.422E-03
RMM:  21    -0.636184441599E+03   -0.81487E-05   -0.91627E-05 10809   0.193E-02
   8 F= -.63618444E+03 E0= -.63611557E+03  d E =-.147384E+00
       N       E                     dE             d eps       ncg     rms          rms(c)
DAV:   1    -0.636152784837E+03    0.31649E-01   -0.14260E+00 11424   0.667E+00    0.515E-01
RMM:   2    -0.636216376738E+03   -0.63592E-01   -0.39130E-01 15310   0.151E+00    0.219E+00
RMM:   3    -0.636190098398E+03    0.26278E-01   -0.37634E-02 11854   0.769E-01    0.880E-01
RMM:   4    -0.636189181779E+03    0.91662E-03   -0.13335E-02 14726   0.276E-01    0.632E-01
RMM:   5    -0.636187125720E+03    0.20561E-02   -0.31267E-03 13917   0.166E-01    0.222E-01
RMM:   6    -0.636187269277E+03   -0.14356E-03   -0.16951E-03 13711   0.926E-02    0.310E-01
RMM:   7    -0.636186829639E+03    0.43964E-03   -0.99355E-04 14032   0.935E-02    0.153E-01
RMM:   8    -0.636187272079E+03   -0.44244E-03   -0.95415E-04 13841   0.858E-02    0.349E-01
RMM:   9    -0.636186691284E+03    0.58079E-03   -0.58851E-04 13485   0.762E-02    0.569E-02
RMM:  10    -0.636186751472E+03   -0.60188E-04   -0.36540E-04 12506   0.415E-02    0.108E-01
RMM:  11    -0.636186710684E+03    0.40788E-04   -0.14927E-04 11803   0.356E-02    0.264E-02
RMM:  12    -0.636186725636E+03   -0.14952E-04   -0.13255E-04 10750   0.198E-02    0.311E-02
RMM:  13    -0.636186727925E+03   -0.22896E-05   -0.64825E-05 10249   0.197E-02
   9 F= -.63618673E+03 E0= -.63611828E+03  d E =-.149670E+00
       N       E                     dE             d eps       ncg     rms          rms(c)
DAV:   1    -0.635007306418E+03    0.11794E+01   -0.74623E+01 13032   0.484E+01    0.581E+00
RMM:   2    -0.640823001958E+03   -0.58157E+01   -0.18709E+01 14531   0.119E+01    0.237E+01
RMM:   3    -0.636400540579E+03    0.44225E+01   -0.29077E+00 12400   0.634E+00    0.462E+00
RMM:   4    -0.636544851513E+03   -0.14431E+00   -0.94042E-01 14977   0.237E+00    0.707E+00
RMM:   5    -0.636307604025E+03    0.23725E+00   -0.22078E-01 14027   0.154E+00    0.233E+00
RMM:   6    -0.636326119376E+03   -0.18515E-01   -0.12445E-01 14750   0.871E-01    0.333E+00
RMM:   7    -0.636279765166E+03    0.46354E-01   -0.76619E-02 14625   0.798E-01    0.156E+00
RMM:   8    -0.636301692706E+03   -0.21928E-01   -0.57237E-02 14494   0.659E-01    0.269E+00
RMM:   9    -0.636266030016E+03    0.35663E-01   -0.34359E-02 14492   0.551E-01    0.482E-01
RMM:  10    -0.636272162034E+03   -0.61320E-02   -0.21423E-02 14959   0.330E-01    0.115E+00
RMM:  11    -0.636266299975E+03    0.58621E-02   -0.95971E-03 14986   0.264E-01    0.214E-01
RMM:  12    -0.636267370125E+03   -0.10701E-02   -0.79979E-03 14603   0.148E-01    0.368E-01
RMM:  13    -0.636267044449E+03    0.32568E-03   -0.34303E-03 14266   0.132E-01    0.134E-01
RMM:  14    -0.636267344836E+03   -0.30039E-03   -0.29344E-03 13882   0.838E-02    0.909E-02
RMM:  15    -0.636267552127E+03   -0.20729E-03   -0.16881E-03 14062   0.796E-02    0.531E-02
RMM:  16    -0.636267666354E+03   -0.11423E-03   -0.12801E-03 13548   0.670E-02    0.231E-02
RMM:  17    -0.636267723895E+03   -0.57541E-04   -0.80417E-04 12666   0.537E-02    0.171E-02
RMM:  18    -0.636267763208E+03   -0.39313E-04   -0.50141E-04 12135   0.428E-02    0.137E-02
RMM:  19    -0.636267786457E+03   -0.23249E-04   -0.30913E-04 11796   0.327E-02    0.107E-02
RMM:  20    -0.636267801298E+03   -0.14842E-04   -0.20249E-04 11677   0.271E-02    0.529E-03
RMM:  21    -0.636267810473E+03   -0.91749E-05   -0.13123E-04 11316   0.226E-02    0.301E-03
RMM:  22    -0.636267817431E+03   -0.69582E-05   -0.86196E-05 10977   0.193E-02
  10 F= -.63626782E+03 E0= -.63620119E+03  d E =-.810895E-01
       N       E                     dE             d eps       ncg     rms          rms(c)
DAV:   1    -0.636243612405E+03    0.24198E-01   -0.14400E+00 12912   0.686E+00    0.818E-01
RMM:   2    -0.636374210271E+03   -0.13060E+00   -0.41872E-01 13843   0.182E+00    0.407E+00
RMM:   3    -0.636280027329E+03    0.94183E-01   -0.66081E-02 12619   0.923E-01    0.144E+00
RMM:   4    -0.636273148034E+03    0.68793E-02   -0.19491E-02 14624   0.355E-01    0.615E-01
RMM:   5    -0.636271584881E+03    0.15632E-02   -0.52119E-03 14291   0.198E-01    0.511E-01
RMM:   6    -0.636270704732E+03    0.88015E-03   -0.18833E-03 12838   0.133E-01    0.326E-01
RMM:   7    -0.636270410446E+03    0.29429E-03   -0.17713E-03 14427   0.113E-01    0.282E-01
RMM:   8    -0.636270522268E+03   -0.11182E-03   -0.10617E-03 12890   0.105E-01    0.321E-01
RMM:   9    -0.636269969161E+03    0.55311E-03   -0.69528E-04 13695   0.779E-02    0.517E-02
RMM:  10    -0.636270063085E+03   -0.93924E-04   -0.33497E-04 12619   0.490E-02    0.139E-01
RMM:  11    -0.636269987065E+03    0.76020E-04   -0.16570E-04 12135   0.342E-02    0.271E-02
RMM:  12    -0.636270003411E+03   -0.16346E-04   -0.11533E-04 11179   0.209E-02    0.321E-02
RMM:  13    -0.636270005829E+03   -0.24185E-05   -0.51093E-05  9882   0.184E-02
  11 F= -.63627001E+03 E0= -.63620309E+03  d E =-.832779E-01
       N       E                     dE             d eps       ncg     rms          rms(c)
DAV:   1    -0.635255838214E+03    0.10142E+01   -0.40489E+01 10992   0.372E+01    0.276E+00
RMM:   2    -0.637142676789E+03   -0.18868E+01   -0.12116E+01 15231   0.837E+00    0.115E+01
RMM:   3    -0.636394189294E+03    0.74849E+00   -0.12991E+00 11949   0.421E+00    0.423E+00
RMM:   4    -0.636386822072E+03    0.73672E-02   -0.39140E-01 14881   0.147E+00    0.315E+00
RMM:   5    -0.636339261379E+03    0.47561E-01   -0.86817E-02 14492   0.861E-01    0.164E+00
RMM:   6    -0.636334218322E+03    0.50431E-02   -0.40414E-02 14973   0.462E-01    0.132E+00
RMM:   7    -0.636329121845E+03    0.50965E-02   -0.27431E-02 14972   0.437E-01    0.109E+00
RMM:   8    -0.636332311938E+03   -0.31901E-02   -0.20493E-02 14214   0.432E-01    0.138E+00
RMM:   9    -0.636321964184E+03    0.10348E-01   -0.15254E-02 14661   0.363E-01    0.333E-01
RMM:  10    -0.636323339659E+03   -0.13755E-02   -0.83408E-03 14837   0.209E-01    0.545E-01
RMM:  11    -0.636322183702E+03    0.11560E-02   -0.41056E-03 14056   0.155E-01    0.126E-01
RMM:  12    -0.636322593391E+03   -0.40969E-03   -0.32681E-03 13474   0.950E-02    0.208E-01
RMM:  13    -0.636322516493E+03    0.76898E-04   -0.13925E-03 13322   0.828E-02    0.840E-02
RMM:  14    -0.636322656034E+03   -0.13954E-03   -0.11429E-03 13106   0.537E-02    0.541E-02
RMM:  15    -0.636322766007E+03   -0.10997E-03   -0.69948E-04 12945   0.527E-02    0.252E-02
RMM:  16    -0.636322809299E+03   -0.43292E-04   -0.46286E-04 12332   0.430E-02    0.124E-02
RMM:  17    -0.636322832876E+03   -0.23576E-04   -0.29416E-04 11837   0.336E-02    0.103E-02
RMM:  18    -0.636322847946E+03   -0.15070E-04   -0.19014E-04 11598   0.272E-02    0.761E-03
RMM:  19    -0.636322857795E+03   -0.98497E-05   -0.12063E-04 11269   0.223E-02    0.482E-03
RMM:  20    -0.636322864510E+03   -0.67150E-05   -0.76388E-05 10837   0.180E-02
  12 F= -.63632286E+03 E0= -.63625914E+03  d E =-.528587E-01
       N       E                     dE             d eps       ncg     rms          rms(c)
DAV:   1    -0.636322856732E+03    0.10635E-05   -0.80683E-04 13896   0.156E-01    0.112E-02
RMM:   2    -0.636322888751E+03   -0.32019E-04   -0.20968E-04 10946   0.358E-02    0.448E-02
RMM:   3    -0.636322877019E+03    0.11732E-04   -0.29316E-05  7029   0.242E-02    0.172E-02
RMM:   4    -0.636322877783E+03   -0.76416E-06   -0.15737E-05  6155   0.155E-02
  13 F= -.63632288E+03 E0= -.63625917E+03  d E =-.528720E-01
       N       E                     dE             d eps       ncg     rms          rms(c)
DAV:   1    -0.635663815213E+03    0.65906E+00   -0.24754E+01 10920   0.298E+01    0.142E+00
RMM:   2    -0.636397326003E+03   -0.73351E+00   -0.71311E+00 15219   0.573E+00    0.331E+00
RMM:   3    -0.636382548255E+03    0.14778E-01   -0.45867E-01 11806   0.272E+00    0.215E+00
RMM:   4    -0.636397237254E+03   -0.14689E-01   -0.15076E-01 14752   0.944E-01    0.248E+00
RMM:   5    -0.636370776134E+03    0.26461E-01   -0.35133E-02 14357   0.571E-01    0.856E-01
RMM:   6    -0.636369739841E+03    0.10363E-02   -0.22071E-02 15158   0.254E-01    0.612E-01
RMM:   7    -0.636367929334E+03    0.18105E-02   -0.91676E-03 14882   0.259E-01    0.537E-01
RMM:   8    -0.636368938935E+03   -0.10096E-02   -0.74021E-03 14702   0.216E-01    0.730E-01
RMM:   9    -0.636366286265E+03    0.26527E-02   -0.55811E-03 14812   0.217E-01    0.238E-01
RMM:  10    -0.636366921092E+03   -0.63483E-03   -0.30820E-03 14509   0.126E-01    0.411E-01
RMM:  11    -0.636366216685E+03    0.70441E-03   -0.13878E-03 13522   0.109E-01    0.863E-02
RMM:  12    -0.636366386043E+03   -0.16936E-03   -0.12944E-03 13040   0.628E-02    0.161E-01
RMM:  13    -0.636366287384E+03    0.98659E-04   -0.55993E-04 12801   0.622E-02    0.443E-02
RMM:  14    -0.636366318830E+03   -0.31447E-04   -0.44681E-04 11934   0.349E-02    0.257E-02
RMM:  15    -0.636366337032E+03   -0.18202E-04   -0.26157E-04 11751   0.327E-02    0.156E-02
RMM:  16    -0.636366347878E+03   -0.10846E-04   -0.17526E-04 11249   0.260E-02    0.722E-03
RMM:  17    -0.636366355481E+03   -0.76033E-05   -0.11395E-04 10883   0.229E-02    0.396E-03
RMM:  18    -0.636366360727E+03   -0.52457E-05   -0.72010E-05 10441   0.188E-02
  14 F= -.63636636E+03 E0= -.63630349E+03  d E =-.434829E-01
       N       E                     dE             d eps       ncg     rms          rms(c)
DAV:   1    -0.636050188323E+03    0.31617E+00   -0.10899E+01 10608   0.200E+01    0.964E-01
RMM:   2    -0.636387166137E+03   -0.33698E+00   -0.32619E+00 15214   0.390E+00    0.223E+00
RMM:   3    -0.636385786378E+03    0.13798E-02   -0.25255E-01 11800   0.182E+00    0.154E+00
RMM:   4    -0.636393261199E+03   -0.74748E-02   -0.66585E-02 14691   0.647E-01    0.179E+00
RMM:   5    -0.636378882584E+03    0.14379E-01   -0.16964E-02 14066   0.392E-01    0.569E-01
RMM:   6    -0.636378477032E+03    0.40555E-03   -0.10252E-02 14637   0.179E-01    0.430E-01
RMM:   7    -0.636377655717E+03    0.82132E-03   -0.42854E-03 14797   0.175E-01    0.375E-01
RMM:   8    -0.636378061593E+03   -0.40588E-03   -0.33316E-03 14283   0.146E-01    0.492E-01
RMM:   9    -0.636376923510E+03    0.11381E-02   -0.26568E-03 14789   0.146E-01    0.181E-01
RMM:  10    -0.636377118634E+03   -0.19512E-03   -0.13991E-03 13715   0.876E-02    0.248E-01
RMM:  11    -0.636376861846E+03    0.25679E-03   -0.68097E-04 12935   0.753E-02    0.580E-02
RMM:  12    -0.636376944008E+03   -0.82162E-04   -0.60591E-04 12288   0.443E-02    0.111E-01
RMM:  13    -0.636376897112E+03    0.46896E-04   -0.27408E-04 12170   0.437E-02    0.281E-02
RMM:  14    -0.636376910169E+03   -0.13056E-04   -0.19854E-04 11044   0.259E-02    0.171E-02
RMM:  15    -0.636376919728E+03   -0.95593E-05   -0.13949E-04 11256   0.234E-02    0.104E-02
RMM:  16    -0.636376923867E+03   -0.41395E-05   -0.86704E-05 10434   0.201E-02
  15 F= -.63637692E+03 E0= -.63631441E+03  d E =-.540461E-01
       N       E                     dE             d eps       ncg     rms          rms(c)
DAV:   1    -0.635910090659E+03    0.46683E+00   -0.19375E+01 11856   0.266E+01    0.175E+00
RMM:   2    -0.636765925672E+03   -0.85584E+00   -0.55272E+00 15146   0.533E+00    0.776E+00
RMM:   3    -0.636432590966E+03    0.33333E+00   -0.50780E-01 11748   0.286E+00    0.280E+00
RMM:   4    -0.636428261251E+03    0.43297E-02   -0.17828E-01 14806   0.101E+00    0.201E+00
RMM:   5    -0.636405828084E+03    0.22433E-01   -0.42262E-02 14425   0.574E-01    0.594E-01
RMM:   6    -0.636409218804E+03   -0.33907E-02   -0.17524E-02 14946   0.294E-01    0.110E+00
RMM:   7    -0.636403889718E+03    0.53291E-02   -0.97776E-03 14905   0.275E-01    0.464E-01
RMM:   8    -0.636407449441E+03   -0.35597E-02   -0.99529E-03 14625   0.259E-01    0.996E-01
RMM:   9    -0.636402408556E+03    0.50409E-02   -0.47886E-03 14396   0.225E-01    0.160E-01
RMM:  10    -0.636403016977E+03   -0.60842E-03   -0.33963E-03 14396   0.104E-01    0.314E-01
RMM:  11    -0.636402613167E+03    0.40381E-03   -0.12805E-03 12886   0.106E-01    0.813E-02
RMM:  12    -0.636402723831E+03   -0.11066E-03   -0.12187E-03 13037   0.522E-02    0.779E-02
RMM:  13    -0.636402758412E+03   -0.34581E-04   -0.49927E-04 12523   0.529E-02    0.699E-02
RMM:  14    -0.636402796311E+03   -0.37899E-04   -0.42876E-04 12118   0.348E-02    0.308E-02
RMM:  15    -0.636402834836E+03   -0.38524E-04   -0.25885E-04 12003   0.347E-02    0.189E-02
RMM:  16    -0.636402855388E+03   -0.20552E-04   -0.17494E-04 11857   0.281E-02    0.811E-03
RMM:  17    -0.636402864605E+03   -0.92169E-05   -0.11123E-04 11151   0.234E-02    0.508E-03
RMM:  18    -0.636402870202E+03   -0.55976E-05   -0.75861E-05 10521   0.195E-02
  16 F= -.63640287E+03 E0= -.63634140E+03  d E =-.259463E-01
       N       E                     dE             d eps       ncg     rms          rms(c)
DAV:   1    -0.636382086733E+03    0.20778E-01   -0.76415E-01 11616   0.532E+00    0.343E-01
RMM:   2    -0.636415262605E+03   -0.33176E-01   -0.23573E-01 15215   0.106E+00    0.141E+00
RMM:   3    -0.636404963722E+03    0.10299E-01   -0.18556E-02 11730   0.537E-01    0.571E-01
RMM:   4    -0.636404801955E+03    0.16177E-03   -0.65089E-03 14346   0.194E-01    0.435E-01
RMM:   5    -0.636403784883E+03    0.10171E-02   -0.15114E-03 13533   0.114E-01    0.156E-01
RMM:   6    -0.636403818388E+03   -0.33505E-04   -0.74692E-04 12534   0.612E-02    0.178E-01
RMM:   7    -0.636403675924E+03    0.14246E-03   -0.41795E-04 13640   0.554E-02    0.992E-02
RMM:   8    -0.636403826406E+03   -0.15048E-03   -0.37697E-04 12473   0.560E-02    0.205E-01
RMM:   9    -0.636403616877E+03    0.20953E-03   -0.25235E-04 12837   0.506E-02    0.418E-02
RMM:  10    -0.636403641587E+03   -0.24710E-04   -0.16116E-04 11882   0.309E-02    0.647E-02
RMM:  11    -0.636403627000E+03    0.14588E-04   -0.67298E-05 10769   0.259E-02    0.144E-02
RMM:  12    -0.636403633430E+03   -0.64305E-05   -0.50382E-05  9422   0.155E-02
  17 F= -.63640363E+03 E0= -.63634236E+03  d E =-.267096E-01
       N       E                     dE             d eps       ncg     rms          rms(c)
DAV:   1    -0.636104754169E+03    0.29887E+00   -0.13636E+01 12696   0.225E+01    0.187E+00
RMM:   2    -0.636787602456E+03   -0.68285E+00   -0.38821E+00 15042   0.465E+00    0.732E+00
RMM:   3    -0.636437583907E+03    0.35002E+00   -0.37413E-01 11871   0.240E+00    0.182E+00
RMM:   4    -0.636458122741E+03   -0.20539E-01   -0.13773E-01 14964   0.867E-01    0.262E+00
RMM:   5    -0.636426345186E+03    0.31778E-01   -0.30371E-02 14003   0.552E-01    0.959E-01
RMM:   6    -0.636425662258E+03    0.68293E-03   -0.17318E-02 14874   0.296E-01    0.942E-01
RMM:   7    -0.636421721633E+03    0.39406E-02   -0.95474E-03 14762   0.264E-01    0.515E-01
RMM:   8    -0.636425020770E+03   -0.32991E-02   -0.75439E-03 14272   0.256E-01    0.990E-01
RMM:   9    -0.636420224205E+03    0.47966E-02   -0.50920E-03 14524   0.212E-01    0.282E-01
RMM:  10    -0.636420580369E+03   -0.35616E-03   -0.28087E-03 14095   0.128E-01    0.352E-01
RMM:  11    -0.636420021309E+03    0.55906E-03   -0.13596E-03 13489   0.938E-02    0.646E-02
RMM:  12    -0.636420139166E+03   -0.11786E-03   -0.11031E-03 12875   0.565E-02    0.105E-01
RMM:  13    -0.636420125747E+03    0.13419E-04   -0.44158E-04 12541   0.524E-02    0.551E-02
RMM:  14    -0.636420155413E+03   -0.29666E-04   -0.38361E-04 11942   0.334E-02    0.333E-02
RMM:  15    -0.636420177895E+03   -0.22482E-04   -0.25899E-04 11924   0.318E-02    0.179E-02
RMM:  16    -0.636420187338E+03   -0.94434E-05   -0.18831E-04 11751   0.281E-02    0.686E-03
RMM:  17    -0.636420195337E+03   -0.79988E-05   -0.12063E-04 11225   0.243E-02    0.556E-03
RMM:  18    -0.636420200835E+03   -0.54976E-05   -0.74684E-05 10543   0.202E-02
  18 F= -.63642020E+03 E0= -.63635919E+03  d E =-.165674E-01
       N       E                     dE             d eps       ncg     rms          rms(c)
DAV:   1    -0.636408241183E+03    0.11954E-01   -0.48996E-01 13056   0.433E+00    0.366E-01
RMM:   2    -0.636435844438E+03   -0.27603E-01   -0.15408E-01 14942   0.950E-01    0.148E+00
RMM:   3    -0.636421454839E+03    0.14390E-01   -0.16875E-02 11911   0.453E-01    0.386E-01
RMM:   4    -0.636421993653E+03   -0.53881E-03   -0.52370E-03 14462   0.165E-01    0.471E-01
RMM:   5    -0.636420956700E+03    0.10370E-02   -0.11017E-03 13213   0.105E-01    0.182E-01
RMM:   6    -0.636420927815E+03    0.28885E-04   -0.60593E-04 12227   0.609E-02    0.177E-01
RMM:   7    -0.636420795469E+03    0.13235E-03   -0.37971E-04 13305   0.540E-02    0.100E-01
RMM:   8    -0.636420902808E+03   -0.10734E-03   -0.27884E-04 12114   0.525E-02    0.181E-01
RMM:   9    -0.636420742686E+03    0.16012E-03   -0.20916E-04 12785   0.426E-02    0.532E-02
RMM:  10    -0.636420752794E+03   -0.10109E-04   -0.11146E-04 11590   0.307E-02    0.619E-02
RMM:  11    -0.636420735057E+03    0.17738E-04   -0.58295E-05 10597   0.212E-02    0.125E-02
RMM:  12    -0.636420736883E+03   -0.18260E-05   -0.38729E-05  9047   0.152E-02
  19 F= -.63642074E+03 E0= -.63635979E+03  d E =-.171035E-01
       N       E                     dE             d eps       ncg     rms          rms(c)
DAV:   1    -0.636273819089E+03    0.14692E+00   -0.57628E+00 10416   0.145E+01    0.842E-01
RMM:   2    -0.636513685049E+03   -0.23987E+00   -0.16837E+00 15206   0.291E+00    0.407E+00
RMM:   3    -0.636438059202E+03    0.75626E-01   -0.13763E-01 11997   0.148E+00    0.127E+00
RMM:   4    -0.636438714247E+03   -0.65505E-03   -0.46052E-02 14669   0.538E-01    0.103E+00
RMM:   5    -0.636432438580E+03    0.62757E-02   -0.10324E-02 14176   0.310E-01    0.325E-01
RMM:   6    -0.636433072469E+03   -0.63389E-03   -0.57898E-03 14360   0.143E-01    0.449E-01
RMM:   7    -0.636432099032E+03    0.97344E-03   -0.27151E-03 14854   0.150E-01    0.211E-01
RMM:   8    -0.636432981640E+03   -0.88261E-03   -0.24117E-03 14227   0.128E-01    0.499E-01
RMM:   9    -0.636431818896E+03    0.11627E-02   -0.12179E-03 13660   0.112E-01    0.673E-02
RMM:  10    -0.636431885808E+03   -0.66912E-04   -0.85589E-04 12847   0.540E-02    0.703E-02
RMM:  11    -0.636431902949E+03   -0.17141E-04   -0.31534E-04 12242   0.521E-02    0.669E-02
RMM:  12    -0.636431911180E+03   -0.82311E-05   -0.30851E-04 11738   0.293E-02    0.208E-02
RMM:  13    -0.636431930973E+03   -0.19793E-04   -0.17048E-04 11521   0.269E-02    0.229E-02
RMM:  14    -0.636431941069E+03   -0.10096E-04   -0.10375E-04 11014   0.228E-02    0.248E-02
RMM:  15    -0.636431949103E+03   -0.80339E-05   -0.82505E-05 10683   0.192E-02
  20 F= -.63643195E+03 E0= -.63637158E+03  d E =-.112122E-01
       N       E                     dE             d eps       ncg     rms          rms(c)
DAV:   1    -0.636393257044E+03    0.38684E-01   -0.14484E+00 10392   0.729E+00    0.417E-01
RMM:   2    -0.636452093010E+03   -0.58836E-01   -0.42602E-01 15234   0.145E+00    0.195E+00
RMM:   3    -0.636434955091E+03    0.17138E-01   -0.33022E-02 11983   0.717E-01    0.639E-01
RMM:   4    -0.636435159444E+03   -0.20435E-03   -0.11453E-02 14529   0.266E-01    0.529E-01
RMM:   5    -0.636433561682E+03    0.15978E-02   -0.26417E-03 13694   0.155E-01    0.184E-01
RMM:   6    -0.636433648625E+03   -0.86944E-04   -0.14940E-03 12896   0.737E-02    0.200E-01
RMM:   7    -0.636433460375E+03    0.18825E-03   -0.72118E-04 13988   0.763E-02    0.105E-01
RMM:   8    -0.636433665892E+03   -0.20552E-03   -0.60723E-04 13500   0.680E-02    0.238E-01
RMM:   9    -0.636433397655E+03    0.26824E-03   -0.33053E-04 12823   0.595E-02    0.322E-02
RMM:  10    -0.636433425602E+03   -0.27948E-04   -0.23654E-04 11835   0.316E-02    0.504E-02
RMM:  11    -0.636433422457E+03    0.31449E-05   -0.97174E-05 11419   0.291E-02
  21 F= -.63643342E+03 E0= -.63637338E+03  d E =-.126856E-01
       N       E                     dE             d eps       ncg     rms          rms(c)
DAV:   1    -0.636349957190E+03    0.83468E-01   -0.32979E+00 10080   0.108E+01    0.653E-01
RMM:   2    -0.636468441313E+03   -0.11848E+00   -0.96446E-01 15283   0.228E+00    0.217E+00
RMM:   3    -0.636442604563E+03    0.25837E-01   -0.79739E-02 12022   0.105E+00    0.731E-01
RMM:   4    -0.636446174583E+03   -0.35700E-02   -0.23392E-02 14840   0.375E-01    0.100E+00
RMM:   5    -0.636440841923E+03    0.53327E-02   -0.56069E-03 14042   0.242E-01    0.252E-01
RMM:   6    -0.636441431271E+03   -0.58935E-03   -0.35732E-03 14097   0.120E-01    0.430E-01
RMM:   7    -0.636440646148E+03    0.78512E-03   -0.16076E-03 14267   0.125E-01    0.173E-01
RMM:   8    -0.636441349290E+03   -0.70314E-03   -0.16734E-03 14196   0.104E-01    0.444E-01
RMM:   9    -0.636440457834E+03    0.89146E-03   -0.82115E-04 13371   0.971E-02    0.876E-02
RMM:  10    -0.636440569332E+03   -0.11150E-03   -0.67061E-04 12683   0.531E-02    0.150E-01
RMM:  11    -0.636440470532E+03    0.98800E-04   -0.26930E-04 12019   0.485E-02    0.262E-02
RMM:  12    -0.636440488128E+03   -0.17596E-04   -0.22222E-04 11122   0.250E-02    0.362E-02
RMM:  13    -0.636440490681E+03   -0.25534E-05   -0.10852E-04 11106   0.250E-02    0.228E-02
RMM:  14    -0.636440494426E+03   -0.37442E-05   -0.86948E-05 10483   0.183E-02
  22 F= -.63644049E+03 E0= -.63638063E+03  d E =-.707197E-02
       N       E                     dE             d eps       ncg     rms          rms(c)
DAV:   1    -0.636410234179E+03    0.30257E-01   -0.11637E+00 10080   0.639E+00    0.390E-01
RMM:   2    -0.636452463559E+03   -0.42229E-01   -0.34102E-01 15269   0.135E+00    0.130E+00
RMM:   3    -0.636442849532E+03    0.96140E-02   -0.28515E-02 12017   0.627E-01    0.431E-01
RMM:   4    -0.636444118946E+03   -0.12694E-02   -0.82622E-03 14629   0.222E-01    0.594E-01
RMM:   5    -0.636442243376E+03    0.18756E-02   -0.19919E-03 13366   0.144E-01    0.146E-01
RMM:   6    -0.636442458406E+03   -0.21503E-03   -0.12972E-03 13012   0.737E-02    0.255E-01
RMM:   7    -0.636442187182E+03    0.27122E-03   -0.58958E-04 13545   0.761E-02    0.101E-01
RMM:   8    -0.636442412086E+03   -0.22490E-03   -0.61746E-04 13608   0.640E-02    0.250E-01
RMM:   9    -0.636442129250E+03    0.28284E-03   -0.29743E-04 12390   0.588E-02    0.540E-02
RMM:  10    -0.636442164692E+03   -0.35442E-04   -0.24889E-04 11789   0.337E-02    0.839E-02
RMM:  11    -0.636442134654E+03    0.30038E-04   -0.10570E-04 11368   0.314E-02    0.160E-02
RMM:  12    -0.636442141035E+03   -0.63806E-05   -0.79915E-05 10022   0.175E-02
  23 F= -.63644214E+03 E0= -.63638241E+03  d E =-.871858E-02
       N       E                     dE             d eps       ncg     rms          rms(c)
DAV:   1    -0.636398671261E+03    0.43463E-01   -0.21435E+00 10512   0.804E+00    0.644E-01
RMM:   2    -0.636486403087E+03   -0.87732E-01   -0.56425E-01 15290   0.189E+00    0.241E+00
RMM:   3    -0.636449589612E+03    0.36813E-01   -0.59825E-02 12018   0.923E-01    0.793E-01
RMM:   4    -0.636451012570E+03   -0.14230E-02   -0.18197E-02 14845   0.321E-01    0.846E-01
RMM:   5    -0.636447203891E+03    0.38087E-02   -0.42489E-03 13854   0.207E-01    0.230E-01
RMM:   6    -0.636447584886E+03   -0.38099E-03   -0.24358E-03 14182   0.120E-01    0.380E-01
RMM:   7    -0.636446863085E+03    0.72180E-03   -0.14037E-03 14253   0.115E-01    0.168E-01
RMM:   8    -0.636447534820E+03   -0.67173E-03   -0.13199E-03 13941   0.988E-02    0.418E-01
RMM:   9    -0.636446709694E+03    0.82513E-03   -0.67413E-04 12986   0.869E-02    0.553E-02
RMM:  10    -0.636446781732E+03   -0.72038E-04   -0.49082E-04 12449   0.413E-02    0.999E-02
RMM:  11    -0.636446743975E+03    0.37757E-04   -0.18610E-04 11877   0.405E-02    0.264E-02
RMM:  12    -0.636446759801E+03   -0.15826E-04   -0.14777E-04 10753   0.210E-02    0.204E-02
RMM:  13    -0.636446771105E+03   -0.11304E-04   -0.90321E-05 10865   0.208E-02    0.284E-02
RMM:  14    -0.636446777113E+03   -0.60085E-05   -0.64766E-05 10204   0.176E-02
  24 F= -.63644678E+03 E0= -.63638752E+03  d E =-.463608E-02
       N       E                     dE             d eps       ncg     rms          rms(c)
DAV:   1    -0.636431930912E+03    0.14840E-01   -0.70463E-01 10728   0.460E+00    0.369E-01
RMM:   2    -0.636460659308E+03   -0.28728E-01   -0.18263E-01 15284   0.107E+00    0.139E+00
RMM:   3    -0.636448329057E+03    0.12330E-01   -0.18854E-02 11964   0.530E-01    0.450E-01
RMM:   4    -0.636448799580E+03   -0.47052E-03   -0.59601E-03 14536   0.183E-01    0.483E-01
RMM:   5    -0.636447571418E+03    0.12282E-02   -0.14098E-03 13513   0.118E-01    0.132E-01
RMM:   6    -0.636447689182E+03   -0.11776E-03   -0.79465E-04 13154   0.690E-02    0.212E-01
RMM:   7    -0.636447466262E+03    0.22292E-03   -0.47164E-04 13426   0.671E-02    0.905E-02
RMM:   8    -0.636447672352E+03   -0.20609E-03   -0.44852E-04 13063   0.601E-02    0.227E-01
RMM:   9    -0.636447432934E+03    0.23942E-03   -0.22610E-04 12249   0.497E-02    0.337E-02
RMM:  10    -0.636447458986E+03   -0.26053E-04   -0.17496E-04 11579   0.276E-02    0.581E-02
RMM:  11    -0.636447448113E+03    0.10874E-04   -0.70983E-05 10892   0.258E-02    0.161E-02
RMM:  12    -0.636447455367E+03   -0.72541E-05   -0.50552E-05  9481   0.156E-02
  25 F= -.63644746E+03 E0= -.63638848E+03  d E =-.531433E-02
       N       E                     dE             d eps       ncg     rms          rms(c)
DAV:   1    -0.636431754014E+03    0.15694E-01   -0.78175E-01  9768   0.468E+00    0.357E-01
RMM:   2    -0.636461046973E+03   -0.29293E-01   -0.20234E-01 15357   0.112E+00    0.133E+00
RMM:   3    -0.636451122520E+03    0.99245E-02   -0.21859E-02 11821   0.522E-01    0.473E-01
RMM:   4    -0.636451467510E+03   -0.34499E-03   -0.60879E-03 14252   0.194E-01    0.482E-01
RMM:   5    -0.636450291438E+03    0.11761E-02   -0.14666E-03 13570   0.124E-01    0.151E-01
RMM:   6    -0.636450364214E+03   -0.72776E-04   -0.84316E-04 12848   0.668E-02    0.204E-01
RMM:   7    -0.636450161805E+03    0.20241E-03   -0.43139E-04 13185   0.641E-02    0.818E-02
RMM:   8    -0.636450286237E+03   -0.12443E-03   -0.44228E-04 13548   0.562E-02    0.182E-01
RMM:   9    -0.636450109577E+03    0.17666E-03   -0.20789E-04 11738   0.519E-02    0.335E-02
RMM:  10    -0.636450118228E+03   -0.86511E-05   -0.15696E-04 11373   0.253E-02    0.389E-02
RMM:  11    -0.636450116330E+03    0.18987E-05   -0.64836E-05 10321   0.235E-02
  26 F= -.63645012E+03 E0= -.63639124E+03  d E =-.266096E-02
       N       E                     dE             d eps       ncg     rms          rms(c)
DAV:   1    -0.636438212665E+03    0.11906E-01   -0.57144E-01  9768   0.399E+00    0.310E-01
RMM:   2    -0.636460311900E+03   -0.22099E-01   -0.14820E-01 15338   0.956E-01    0.118E+00
RMM:   3    -0.636452362813E+03    0.79491E-02   -0.16080E-02 11729   0.449E-01    0.410E-01
RMM:   4    -0.636452574119E+03   -0.21131E-03   -0.45543E-03 14116   0.167E-01    0.405E-01
RMM:   5    -0.636451759207E+03    0.81491E-03   -0.11022E-03 13409   0.105E-01    0.136E-01
RMM:   6    -0.636451792733E+03   -0.33526E-04   -0.62009E-04 12542   0.574E-02    0.166E-01
RMM:   7    -0.636451663349E+03    0.12938E-03   -0.32287E-04 13039   0.530E-02    0.712E-02
RMM:   8    -0.636451778215E+03   -0.11487E-03   -0.31686E-04 12957   0.495E-02    0.171E-01
RMM:   9    -0.636451631092E+03    0.14712E-03   -0.17304E-04 12009   0.442E-02    0.370E-02
RMM:  10    -0.636451653966E+03   -0.22874E-04   -0.13385E-04 11432   0.255E-02    0.686E-02
RMM:  11    -0.636451634043E+03    0.19924E-04   -0.57412E-05 10460   0.239E-02    0.132E-02
RMM:  12    -0.636451636264E+03   -0.22216E-05   -0.39881E-05  8967   0.140E-02
  27 F= -.63645164E+03 E0= -.63639286E+03  d E =-.418090E-02
       N       E                     dE             d eps       ncg     rms          rms(c)
DAV:   1    -0.636399070098E+03    0.52564E-01   -0.22843E+00  9816   0.798E+00    0.617E-01
RMM:   2    -0.636486103034E+03   -0.87033E-01   -0.58948E-01 15353   0.191E+00    0.233E+00
RMM:   3    -0.636455573600E+03    0.30529E-01   -0.63692E-02 11783   0.890E-01    0.808E-01
RMM:   4    -0.636456527212E+03   -0.95361E-03   -0.17523E-02 14709   0.330E-01    0.822E-01
RMM:   5    -0.636453137324E+03    0.33899E-02   -0.41705E-03 13950   0.205E-01    0.271E-01
RMM:   6    -0.636453273031E+03   -0.13571E-03   -0.23819E-03 13774   0.110E-01    0.334E-01
RMM:   7    -0.636452736570E+03    0.53646E-03   -0.12018E-03 14082   0.103E-01    0.138E-01
RMM:   8    -0.636453124248E+03   -0.38768E-03   -0.12010E-03 14366   0.905E-02    0.314E-01
RMM:   9    -0.636452589102E+03    0.53515E-03   -0.59629E-04 13045   0.840E-02    0.519E-02
RMM:  10    -0.636452607102E+03   -0.18000E-04   -0.44715E-04 12434   0.394E-02    0.331E-02
RMM:  11    -0.636452624793E+03   -0.17691E-04   -0.16707E-04 11968   0.344E-02    0.556E-02
RMM:  12    -0.636452622520E+03    0.22737E-05   -0.14210E-04 11289   0.215E-02    0.217E-02
RMM:  13    -0.636452630534E+03   -0.80145E-05   -0.86647E-05 10937   0.207E-02
  28 F= -.63645263E+03 E0= -.63639406E+03  d E =-.517517E-02
       N       E                     dE             d eps       ncg     rms          rms(c)
DAV:   1    -0.636421584102E+03    0.31038E-01   -0.14116E+00  9744   0.600E+00    0.276E-01
RMM:   2    -0.636454103967E+03   -0.32520E-01   -0.33051E-01 15194   0.144E+00    0.406E-01
RMM:   3    -0.636457303942E+03   -0.32000E-02   -0.30561E-02 12155   0.537E-01    0.621E-01
RMM:   4    -0.636456472095E+03    0.83185E-03   -0.70177E-03 14229   0.201E-01    0.299E-01
RMM:   5    -0.636456045524E+03    0.42657E-03   -0.14855E-03 13301   0.113E-01    0.128E-01
RMM:   6    -0.636456074462E+03   -0.28938E-04   -0.77011E-04 12646   0.560E-02    0.140E-01
RMM:   7    -0.636455977798E+03    0.96664E-04   -0.35608E-04 12483   0.549E-02    0.925E-02
RMM:   8    -0.636456079483E+03   -0.10169E-03   -0.47394E-04 12920   0.556E-02    0.185E-01
RMM:   9    -0.636455926722E+03    0.15276E-03   -0.26630E-04 12184   0.512E-02    0.422E-02
RMM:  10    -0.636455950651E+03   -0.23929E-04   -0.14072E-04 11244   0.288E-02    0.776E-02
RMM:  11    -0.636455922556E+03    0.28095E-04   -0.60025E-05 10222   0.260E-02    0.187E-02
RMM:  12    -0.636455923560E+03   -0.10043E-05   -0.62858E-05  9584   0.154E-02
  29 F= -.63645592E+03 E0= -.63639756E+03  d E =-.329303E-02
       N       E                     dE             d eps       ncg     rms          rms(c)
DAV:   1    -0.636411650945E+03    0.44272E-01   -0.19270E+00  9744   0.701E+00    0.326E-01
RMM:   2    -0.636456244179E+03   -0.44593E-01   -0.45181E-01 15186   0.168E+00    0.491E-01
RMM:   3    -0.636460304347E+03   -0.40602E-02   -0.41545E-02 12120   0.623E-01    0.700E-01
RMM:   4    -0.636459504057E+03    0.80029E-03   -0.96357E-03 14323   0.236E-01    0.401E-01
RMM:   5    -0.636458715986E+03    0.78807E-03   -0.20676E-03 13373   0.137E-01    0.148E-01
RMM:   6    -0.636458756075E+03   -0.40089E-04   -0.11070E-03 12745   0.635E-02    0.155E-01
RMM:   7    -0.636458638532E+03    0.11754E-03   -0.47861E-04 12753   0.638E-02    0.113E-01
RMM:   8    -0.636458759584E+03   -0.12105E-03   -0.56634E-04 12931   0.598E-02    0.203E-01
RMM:   9    -0.636458567920E+03    0.19166E-03   -0.39774E-04 12966   0.587E-02    0.530E-02
RMM:  10    -0.636458605622E+03   -0.37703E-04   -0.19182E-04 11545   0.351E-02    0.960E-02
RMM:  11    -0.636458560469E+03    0.45153E-04   -0.81676E-05 10886   0.291E-02    0.169E-02
RMM:  12    -0.636458562774E+03   -0.23046E-05   -0.82882E-05 10021   0.169E-02
  30 F= -.63645856E+03 E0= -.63640046E+03  d E =-.593224E-02
       N       E                     dE             d eps       ncg     rms          rms(c)
DAV:   1    -0.636272533135E+03    0.18603E+00   -0.77110E+00  9744   0.140E+01    0.649E-01
RMM:   2    -0.636449770631E+03   -0.17724E+00   -0.18024E+00 15189   0.337E+00    0.905E-01
RMM:   3    -0.636466887525E+03   -0.17117E-01   -0.16599E-01 12185   0.124E+00    0.141E+00
RMM:   4    -0.636463623763E+03    0.32638E-02   -0.38726E-02 14492   0.475E-01    0.811E-01
RMM:   5    -0.636460273260E+03    0.33505E-02   -0.80744E-03 14096   0.274E-01    0.284E-01
RMM:   6    -0.636460512026E+03   -0.23877E-03   -0.44930E-03 13851   0.123E-01    0.327E-01
RMM:   7    -0.636459961830E+03    0.55020E-03   -0.18318E-03 13988   0.124E-01    0.207E-01
RMM:   8    -0.636460458507E+03   -0.49668E-03   -0.25519E-03 14280   0.122E-01    0.411E-01
RMM:   9    -0.636459709742E+03    0.74876E-03   -0.12579E-03 13569   0.108E-01    0.104E-01
RMM:  10    -0.636459844397E+03   -0.13465E-03   -0.73547E-04 12513   0.602E-02    0.182E-01
RMM:  11    -0.636459680180E+03    0.16422E-03   -0.29883E-04 11953   0.538E-02    0.364E-02
RMM:  12    -0.636459690511E+03   -0.10332E-04   -0.34649E-04 11828   0.295E-02    0.280E-02
RMM:  13    -0.636459710911E+03   -0.20400E-04   -0.13100E-04 11192   0.325E-02    0.560E-02
RMM:  14    -0.636459704243E+03    0.66682E-05   -0.11109E-04 10658   0.205E-02    0.926E-03
RMM:  15    -0.636459709325E+03   -0.50818E-05   -0.65584E-05  9847   0.186E-02
  31 F= -.63645971E+03 E0= -.63640208E+03  d E =-.707879E-02
       N       E                     dE             d eps       ncg     rms          rms(c)
DAV:   1    -0.636435755376E+03    0.23949E-01   -0.99309E-01  9744   0.504E+00    0.234E-01
RMM:   2    -0.636458638179E+03   -0.22883E-01   -0.23358E-01 15178   0.120E+00    0.329E-01
RMM:   3    -0.636461195484E+03   -0.25573E-02   -0.21226E-02 11672   0.449E-01    0.567E-01
RMM:   4    -0.636460264089E+03    0.93140E-03   -0.45335E-03 13934   0.165E-01    0.207E-01
RMM:   5    -0.636460070747E+03    0.19334E-03   -0.94866E-04 13025   0.892E-02    0.102E-01
RMM:   6    -0.636460075406E+03   -0.46582E-05   -0.39507E-04 12414   0.448E-02    0.116E-01
RMM:   7    -0.636460017789E+03    0.57617E-04   -0.18112E-04 11703   0.425E-02    0.810E-02
RMM:   8    -0.636460050577E+03   -0.32788E-04   -0.32149E-04 12471   0.452E-02    0.133E-01
RMM:   9    -0.636459971785E+03    0.78792E-04   -0.13726E-04 10921   0.377E-02    0.374E-02
RMM:  10    -0.636459978643E+03   -0.68579E-05   -0.67544E-05 10040   0.212E-02
  32 F= -.63645998E+03 E0= -.63640221E+03  d E =-.734811E-02
       N       E                     dE             d eps       ncg     rms          rms(c)
DAV:   1    -0.636427943119E+03    0.32029E-01   -0.14406E+00  9744   0.605E+00    0.425E-01
RMM:   2    -0.636473611445E+03   -0.45668E-01   -0.37606E-01 15267   0.151E+00    0.131E+00
RMM:   3    -0.636464663071E+03    0.89484E-02   -0.39466E-02 11743   0.704E-01    0.522E-01
RMM:   4    -0.636466215410E+03   -0.15523E-02   -0.93684E-03 14593   0.246E-01    0.694E-01
RMM:   5    -0.636463761683E+03    0.24537E-02   -0.23667E-03 13606   0.158E-01    0.189E-01
RMM:   6    -0.636463845592E+03   -0.83910E-04   -0.12927E-03 13248   0.812E-02    0.231E-01
RMM:   7    -0.636463559269E+03    0.28632E-03   -0.76501E-04 14036   0.781E-02    0.119E-01
RMM:   8    -0.636463859704E+03   -0.30044E-03   -0.62044E-04 13170   0.731E-02    0.290E-01
RMM:   9    -0.636463464093E+03    0.39561E-03   -0.34949E-04 12524   0.593E-02    0.423E-02
RMM:  10    -0.636463502404E+03   -0.38312E-04   -0.23246E-04 12023   0.332E-02    0.801E-02
RMM:  11    -0.636463477444E+03    0.24960E-04   -0.89513E-05 11091   0.288E-02    0.191E-02
RMM:  12    -0.636463487227E+03   -0.97830E-05   -0.75719E-05  9926   0.168E-02
  33 F= -.63646349E+03 E0= -.63640614E+03  d E =-.350858E-02
       N       E                     dE             d eps       ncg     rms          rms(c)
DAV:   1    -0.636411572854E+03    0.51905E-01   -0.21592E+00  9744   0.740E+00    0.525E-01
RMM:   2    -0.636481166614E+03   -0.69594E-01   -0.56705E-01 15258   0.186E+00    0.165E+00
RMM:   3    -0.636466686309E+03    0.14480E-01   -0.60229E-02 11744   0.865E-01    0.640E-01
RMM:   4    -0.636469027092E+03   -0.23408E-02   -0.14680E-02 14754   0.304E-01    0.844E-01
RMM:   5    -0.636465432906E+03    0.35942E-02   -0.37132E-03 13803   0.195E-01    0.247E-01
RMM:   6    -0.636465498195E+03   -0.65289E-04   -0.21430E-03 13741   0.991E-02    0.265E-01
RMM:   7    -0.636465117772E+03    0.38042E-03   -0.12075E-03 14327   0.941E-02    0.136E-01
RMM:   8    -0.636465556255E+03   -0.43848E-03   -0.10022E-03 14085   0.902E-02    0.348E-01
RMM:   9    -0.636464999153E+03    0.55710E-03   -0.51563E-04 12831   0.715E-02    0.499E-02
RMM:  10    -0.636465047164E+03   -0.48010E-04   -0.39089E-04 12270   0.395E-02    0.815E-02
RMM:  11    -0.636465026330E+03    0.20834E-04   -0.14316E-04 11728   0.357E-02    0.272E-02
RMM:  12    -0.636465039197E+03   -0.12867E-04   -0.12761E-04 10593   0.193E-02    0.248E-02
RMM:  13    -0.636465044720E+03   -0.55226E-05   -0.66241E-05 10434   0.190E-02
  34 F= -.63646504E+03 E0= -.63640820E+03  d E =-.506608E-02
       N       E                     dE             d eps       ncg     rms          rms(c)
DAV:   1    -0.636444518579E+03    0.20521E-01   -0.10653E+00 10584   0.527E+00    0.523E-01
RMM:   2    -0.636495280856E+03   -0.50762E-01   -0.28892E-01 15238   0.140E+00    0.203E+00
RMM:   3    -0.636469676124E+03    0.25605E-01   -0.33963E-02 11819   0.698E-01    0.633E-01
RMM:   4    -0.636470286364E+03   -0.61024E-03   -0.10727E-02 14612   0.263E-01    0.651E-01
RMM:   5    -0.636468116787E+03    0.21696E-02   -0.26240E-03 13799   0.164E-01    0.216E-01
RMM:   6    -0.636468240553E+03   -0.12377E-03   -0.14881E-03 13559   0.931E-02    0.285E-01
RMM:   7    -0.636467839623E+03    0.40093E-03   -0.73659E-04 13848   0.818E-02    0.120E-01
RMM:   8    -0.636468161936E+03   -0.32231E-03   -0.67019E-04 13506   0.743E-02    0.287E-01
RMM:   9    -0.636467753198E+03    0.40874E-03   -0.40327E-04 13023   0.655E-02    0.632E-02
RMM:  10    -0.636467801762E+03   -0.48564E-04   -0.26316E-04 12428   0.388E-02    0.106E-01
RMM:  11    -0.636467749726E+03    0.52036E-04   -0.11676E-04 11750   0.314E-02    0.181E-02
RMM:  12    -0.636467754730E+03   -0.50043E-05   -0.84645E-05 10195   0.164E-02
  35 F= -.63646775E+03 E0= -.63641104E+03  d E =-.271001E-02
       N       E                     dE             d eps       ncg     rms          rms(c)
DAV:   1    -0.636460346693E+03    0.74030E-02   -0.37384E-01 10800   0.312E+00    0.312E-01
RMM:   2    -0.636478738930E+03   -0.18392E-01   -0.10208E-01 15229   0.832E-01    0.123E+00
RMM:   3    -0.636469211196E+03    0.95277E-02   -0.12117E-02 11745   0.416E-01    0.374E-01
RMM:   4    -0.636469414141E+03   -0.20295E-03   -0.38031E-03 14013   0.156E-01    0.380E-01
RMM:   5    -0.636468686912E+03    0.72723E-03   -0.93101E-04 13261   0.968E-02    0.129E-01
RMM:   6    -0.636468718842E+03   -0.31930E-04   -0.51489E-04 12510   0.560E-02    0.161E-01
RMM:   7    -0.636468596751E+03    0.12209E-03   -0.27306E-04 13079   0.496E-02    0.737E-02
RMM:   8    -0.636468694736E+03   -0.97985E-04   -0.23870E-04 12193   0.442E-02    0.161E-01
RMM:   9    -0.636468568329E+03    0.12641E-03   -0.15236E-04 12124   0.391E-02    0.371E-02
RMM:  10    -0.636468584324E+03   -0.15996E-04   -0.10164E-04 11280   0.254E-02    0.597E-02
RMM:  11    -0.636468568290E+03    0.16035E-04   -0.47490E-05  8974   0.205E-02    0.118E-02
RMM:  12    -0.636468568137E+03    0.15274E-06   -0.25827E-05  7221   0.155E-02
  36 F= -.63646857E+03 E0= -.63641191E+03  d E =-.352342E-02
       N       E                     dE             d eps       ncg     rms          rms(c)
DAV:   1    -0.636435789278E+03    0.32779E-01   -0.14969E+00 10608   0.625E+00    0.621E-01
RMM:   2    -0.636507701337E+03   -0.71912E-01   -0.40546E-01 15241   0.166E+00    0.242E+00
RMM:   3    -0.636471019564E+03    0.36682E-01   -0.47692E-02 11794   0.824E-01    0.735E-01
RMM:   4    -0.636471963065E+03   -0.94350E-03   -0.14776E-02 14689   0.309E-01    0.771E-01
RMM:   5    -0.636468924535E+03    0.30385E-02   -0.35986E-03 13849   0.191E-01    0.251E-01
RMM:   6    -0.636469095846E+03   -0.17131E-03   -0.20120E-03 13750   0.108E-01    0.332E-01
RMM:   7    -0.636468565803E+03    0.53004E-03   -0.10181E-03 14095   0.949E-02    0.143E-01
RMM:   8    -0.636468970685E+03   -0.40488E-03   -0.88576E-04 13694   0.846E-02    0.325E-01
RMM:   9    -0.636468449730E+03    0.52096E-03   -0.53798E-04 13354   0.735E-02    0.708E-02
RMM:  10    -0.636468514058E+03   -0.64328E-04   -0.35542E-04 12523   0.439E-02    0.119E-01
RMM:  11    -0.636468451129E+03    0.62928E-04   -0.15710E-04 12084   0.353E-02    0.220E-02
RMM:  12    -0.636468459069E+03   -0.79395E-05   -0.11534E-04 10644   0.184E-02    0.262E-02
RMM:  13    -0.636468461408E+03   -0.23391E-05   -0.60084E-05 10304   0.184E-02
  37 F= -.63646846E+03 E0= -.63641194E+03  d E =-.341669E-02
       N       E                     dE             d eps       ncg     rms          rms(c)
DAV:   1    -0.636457505641E+03    0.10953E-01   -0.51844E-01 10560   0.369E+00    0.364E-01
RMM:   2    -0.636482038852E+03   -0.24533E-01   -0.14141E-01 15222   0.987E-01    0.140E+00
RMM:   3    -0.636469717712E+03    0.12321E-01   -0.16482E-02 11750   0.485E-01    0.436E-01
RMM:   4    -0.636470076449E+03   -0.35874E-03   -0.50722E-03 14158   0.184E-01    0.461E-01
RMM:   5    -0.636468964725E+03    0.11117E-02   -0.11961E-03 13154   0.115E-01    0.143E-01
RMM:   6    -0.636469030965E+03   -0.66240E-04   -0.65829E-04 12669   0.645E-02    0.199E-01
RMM:   7    -0.636468834756E+03    0.19621E-03   -0.32872E-04 12631   0.567E-02    0.887E-02
RMM:   8    -0.636468983394E+03   -0.14864E-03   -0.28711E-04 11945   0.523E-02    0.200E-01
RMM:   9    -0.636468789259E+03    0.19413E-03   -0.18911E-04 11657   0.451E-02    0.409E-02
RMM:  10    -0.636468815281E+03   -0.26022E-04   -0.10452E-04 10530   0.283E-02    0.752E-02
RMM:  11    -0.636468789903E+03    0.25378E-04   -0.39300E-05  7202   0.208E-02    0.124E-02
RMM:  12    -0.636468794861E+03   -0.49582E-05   -0.31118E-05  6928   0.158E-02
  38 F= -.63646879E+03 E0= -.63641219E+03  d E =-.375014E-02
       N       E                     dE             d eps       ncg     rms          rms(c)
DAV:   1    -0.636440901872E+03    0.27888E-01   -0.12289E+00 10056   0.565E+00    0.318E-01
RMM:   2    -0.636474479917E+03   -0.33578E-01   -0.31378E-01 15248   0.134E+00    0.788E-01
RMM:   3    -0.636472092750E+03    0.23872E-02   -0.26794E-02 11536   0.625E-01    0.423E-01
RMM:   4    -0.636473324987E+03   -0.12322E-02   -0.68130E-03 14199   0.224E-01    0.587E-01
RMM:   5    -0.636471580390E+03    0.17446E-02   -0.16984E-03 13146   0.138E-01    0.118E-01
RMM:   6    -0.636471685958E+03   -0.10557E-03   -0.98001E-04 12956   0.637E-02    0.186E-01
RMM:   7    -0.636471531341E+03    0.15462E-03   -0.42898E-04 13042   0.632E-02    0.889E-02
RMM:   8    -0.636471605752E+03   -0.74412E-04   -0.46998E-04 13583   0.568E-02    0.163E-01
RMM:   9    -0.636471477650E+03    0.12810E-03   -0.18902E-04 11628   0.507E-02    0.303E-02
RMM:  10    -0.636471504472E+03   -0.26822E-04   -0.16434E-04 11414   0.262E-02    0.626E-02
RMM:  11    -0.636471490307E+03    0.14165E-04   -0.64352E-05 10541   0.253E-02    0.157E-02
RMM:  12    -0.636471494572E+03   -0.42651E-05   -0.50303E-05  9442   0.147E-02
  39 F= -.63647149E+03 E0= -.63641504E+03  d E =-.269971E-02
       N       E                     dE             d eps       ncg     rms          rms(c)
DAV:   1    -0.636406394852E+03    0.65095E-01   -0.26761E+00 10056   0.834E+00    0.468E-01
RMM:   2    -0.636479872191E+03   -0.73477E-01   -0.68599E-01 15258   0.198E+00    0.118E+00
RMM:   3    -0.636474485888E+03    0.53863E-02   -0.59093E-02 11596   0.925E-01    0.634E-01
RMM:   4    -0.636477115309E+03   -0.26294E-02   -0.15612E-02 14523   0.331E-01    0.854E-01
RMM:   5    -0.636473400925E+03    0.37144E-02   -0.39376E-03 13646   0.206E-01    0.177E-01
RMM:   6    -0.636473637907E+03   -0.23698E-03   -0.23560E-03 13479   0.944E-02    0.270E-01
RMM:   7    -0.636473318504E+03    0.31940E-03   -0.10415E-03 13956   0.963E-02    0.136E-01
RMM:   8    -0.636473542018E+03   -0.22351E-03   -0.11020E-03 14145   0.856E-02    0.261E-01
RMM:   9    -0.636473199306E+03    0.34271E-03   -0.47653E-04 12602   0.750E-02    0.369E-02
RMM:  10    -0.636473244425E+03   -0.45119E-04   -0.40267E-04 11873   0.375E-02    0.675E-02
RMM:  11    -0.636473235855E+03    0.85702E-05   -0.14756E-04 11573   0.338E-02    0.313E-02
RMM:  12    -0.636473242197E+03   -0.63421E-05   -0.13018E-04 10741   0.206E-02    0.128E-02
RMM:  13    -0.636473253486E+03   -0.11289E-04   -0.78205E-05 10924   0.202E-02    0.309E-02
RMM:  14    -0.636473253902E+03   -0.41575E-06   -0.52606E-05 10122   0.177E-02
  40 F= -.63647325E+03 E0= -.63641703E+03  d E =-.445904E-02
       N       E                     dE             d eps       ncg     rms          rms(c)
DAV:   1    -0.636455767660E+03    0.17486E-01   -0.72517E-01 10080   0.485E+00    0.230E-01
RMM:   2    -0.636474714414E+03   -0.18947E-01   -0.19600E-01 15232   0.107E+00    0.286E-01
RMM:   3    -0.636476304056E+03   -0.15896E-02   -0.15190E-02 11490   0.450E-01    0.476E-01
RMM:   4    -0.636475728473E+03    0.57558E-03   -0.44417E-03 14013   0.161E-01    0.236E-01
RMM:   5    -0.636475451142E+03    0.27733E-03   -0.97769E-04 13141   0.886E-02    0.959E-02
RMM:   6    -0.636475524281E+03   -0.73139E-04   -0.51991E-04 12460   0.497E-02    0.151E-01
RMM:   7    -0.636475406169E+03    0.11811E-03   -0.28456E-04 12611   0.527E-02    0.546E-02
RMM:   8    -0.636475412055E+03   -0.58860E-05   -0.28707E-04 12882   0.409E-02    0.659E-02
RMM:   9    -0.636475400471E+03    0.11584E-04   -0.98414E-05 10772   0.376E-02    0.349E-02
RMM:  10    -0.636475399499E+03    0.97160E-06   -0.82283E-05 10291   0.194E-02
  41 F= -.63647540E+03 E0= -.63641921E+03  d E =-.214560E-02
       N       E                     dE             d eps       ncg     rms          rms(c)
DAV:   1    -0.636452094430E+03    0.23306E-01   -0.91105E-01 10080   0.544E+00    0.260E-01
RMM:   2    -0.636476138264E+03   -0.24044E-01   -0.24697E-01 15224   0.121E+00    0.382E-01
RMM:   3    -0.636477761131E+03   -0.16229E-02   -0.19134E-02 11558   0.505E-01    0.518E-01
RMM:   4    -0.636477230162E+03    0.53097E-03   -0.58944E-03 14222   0.181E-01    0.273E-01
RMM:   5    -0.636476840652E+03    0.38951E-03   -0.12187E-03 13340   0.103E-01    0.106E-01
RMM:   6    -0.636476937166E+03   -0.96514E-04   -0.71796E-04 12639   0.554E-02    0.164E-01
RMM:   7    -0.636476798565E+03    0.13860E-03   -0.37762E-04 13005   0.600E-02    0.694E-02
RMM:   8    -0.636476878327E+03   -0.79762E-04   -0.36032E-04 12796   0.483E-02    0.144E-01
RMM:   9    -0.636476784605E+03    0.93722E-04   -0.14967E-04 11595   0.433E-02    0.313E-02
RMM:  10    -0.636476807966E+03   -0.23360E-04   -0.14980E-04 11027   0.259E-02    0.608E-02
RMM:  11    -0.636476791952E+03    0.16014E-04   -0.62485E-05 10466   0.243E-02    0.970E-03
RMM:  12    -0.636476794651E+03   -0.26997E-05   -0.40398E-05  9160   0.142E-02
  42 F= -.63647679E+03 E0= -.63642065E+03  d E =-.354075E-02
       N       E                     dE             d eps       ncg     rms          rms(c)
DAV:   1    -0.636377690057E+03    0.99102E-01   -0.36419E+00 10080   0.109E+01    0.518E-01
RMM:   2    -0.636473726406E+03   -0.96036E-01   -0.98592E-01 15230   0.241E+00    0.755E-01
RMM:   3    -0.636480080403E+03   -0.63540E-02   -0.75979E-02 11520   0.101E+00    0.102E+00
RMM:   4    -0.636478471952E+03    0.16085E-02   -0.23177E-02 14685   0.360E-01    0.599E-01
RMM:   5    -0.636476500377E+03    0.19716E-02   -0.46837E-03 13921   0.203E-01    0.214E-01
RMM:   6    -0.636476880285E+03   -0.37991E-03   -0.27956E-03 13562   0.106E-01    0.331E-01
RMM:   7    -0.636476271192E+03    0.60909E-03   -0.14925E-03 14300   0.115E-01    0.110E-01
RMM:   8    -0.636476243970E+03    0.27222E-04   -0.13736E-03 14530   0.811E-02    0.866E-02
RMM:   9    -0.636476281026E+03   -0.37056E-04   -0.43190E-04 11623   0.749E-02    0.103E-01
RMM:  10    -0.636476250833E+03    0.30193E-04   -0.40172E-04 11941   0.391E-02    0.229E-02
RMM:  11    -0.636476277949E+03   -0.27116E-04   -0.22388E-04 11582   0.330E-02    0.608E-02
RMM:  12    -0.636476271478E+03    0.64714E-05   -0.13736E-04 11349   0.261E-02    0.166E-02
RMM:  13    -0.636476283656E+03   -0.12178E-04   -0.10085E-04 10774   0.211E-02    0.327E-02
RMM:  14    -0.636476282433E+03    0.12222E-05   -0.60082E-05 10249   0.199E-02
  43 F= -.63647628E+03 E0= -.63642025E+03  d E =-.302853E-02
       N       E                     dE             d eps       ncg     rms          rms(c)
DAV:   1    -0.636435381710E+03    0.40902E-01   -0.15417E+00 10080   0.708E+00    0.335E-01
RMM:   2    -0.636475555840E+03   -0.40174E-01   -0.41656E-01 15221   0.156E+00    0.413E-01
RMM:   3    -0.636479350445E+03   -0.37946E-02   -0.32092E-02 11362   0.656E-01    0.719E-01
RMM:   4    -0.636477574506E+03    0.17759E-02   -0.85005E-03 14327   0.229E-01    0.265E-01
RMM:   5    -0.636477272773E+03    0.30173E-03   -0.18989E-03 13548   0.116E-01    0.140E-01
RMM:   6    -0.636477389115E+03   -0.11634E-03   -0.83789E-04 12991   0.681E-02    0.218E-01
RMM:   7    -0.636477160969E+03    0.22815E-03   -0.47759E-04 12803   0.678E-02    0.928E-02
RMM:   8    -0.636477140350E+03    0.20619E-04   -0.53340E-04 13765   0.567E-02    0.871E-02
RMM:   9    -0.636477126582E+03    0.13768E-04   -0.16596E-04 11290   0.472E-02    0.575E-02
RMM:  10    -0.636477125693E+03    0.88901E-06   -0.14201E-04 11169   0.254E-02    0.443E-02
RMM:  11    -0.636477121731E+03    0.39611E-05   -0.72027E-05 10723   0.224E-02
  44 F= -.63647712E+03 E0= -.63642101E+03  d E =-.386783E-02
       N       E                     dE             d eps       ncg     rms          rms(c)
DAV:   1    -0.636441202736E+03    0.35923E-01   -0.12667E+00 10080   0.687E+00    0.396E-01
RMM:   2    -0.636485253610E+03   -0.44051E-01   -0.39926E-01 15228   0.143E+00    0.110E+00
RMM:   3    -0.636480236348E+03    0.50173E-02   -0.30048E-02 11778   0.666E-01    0.542E-01
RMM:   4    -0.636481439558E+03   -0.12032E-02   -0.88301E-03 14412   0.238E-01    0.646E-01
RMM:   5    -0.636479152086E+03    0.22875E-02   -0.20628E-03 13128   0.157E-01    0.173E-01
RMM:   6    -0.636479276485E+03   -0.12440E-03   -0.12895E-03 12924   0.764E-02    0.228E-01
RMM:   7    -0.636479037545E+03    0.23894E-03   -0.66904E-04 14003   0.763E-02    0.140E-01
RMM:   8    -0.636479190028E+03   -0.15248E-03   -0.51525E-04 12614   0.669E-02    0.236E-01
RMM:   9    -0.636478913060E+03    0.27697E-03   -0.32255E-04 13089   0.572E-02    0.414E-02
RMM:  10    -0.636478956986E+03   -0.43927E-04   -0.21569E-04 12033   0.347E-02    0.905E-02
RMM:  11    -0.636478919793E+03    0.37194E-04   -0.87325E-05 11124   0.299E-02    0.177E-02
RMM:  12    -0.636478928021E+03   -0.82287E-05   -0.76802E-05 10123   0.171E-02
  45 F= -.63647893E+03 E0= -.63642277E+03  d E =-.180629E-02
       N       E                     dE             d eps       ncg     rms          rms(c)
DAV:   1    -0.636467993002E+03    0.10927E-01   -0.37521E-01 10224   0.374E+00    0.216E-01
RMM:   2    -0.636481270468E+03   -0.13277E-01   -0.11955E-01 15212   0.778E-01    0.613E-01
RMM:   3    -0.636479601265E+03    0.16692E-02   -0.91749E-03 11784   0.366E-01    0.293E-01
RMM:   4    -0.636479980609E+03   -0.37934E-03   -0.27920E-03 13645   0.132E-01    0.353E-01
RMM:   5    -0.636479304334E+03    0.67628E-03   -0.66995E-04 12356   0.898E-02    0.921E-02
RMM:   6    -0.636479354432E+03   -0.50098E-04   -0.46462E-04 12226   0.446E-02    0.127E-01
RMM:   7    -0.636479285352E+03    0.69080E-04   -0.23124E-04 12650   0.461E-02    0.770E-02
RMM:   8    -0.636479331710E+03   -0.46358E-04   -0.18591E-04 11612   0.399E-02    0.127E-01
RMM:   9    -0.636479252001E+03    0.79709E-04   -0.11225E-04 11876   0.344E-02    0.217E-02
RMM:  10    -0.636479267869E+03   -0.15868E-04   -0.86895E-05 10732   0.222E-02    0.515E-02
RMM:  11    -0.636479256576E+03    0.11293E-04   -0.39356E-05  8645   0.206E-02    0.953E-03
RMM:  12    -0.636479258355E+03   -0.17789E-05   -0.25627E-05  7650   0.148E-02
  46 F= -.63647926E+03 E0= -.63642306E+03  d E =-.213662E-02
       N       E                     dE             d eps       ncg     rms          rms(c)
DAV:   1    -0.636449470512E+03    0.29786E-01   -0.11870E+00 12624   0.672E+00    0.573E-01
RMM:   2    -0.636520810330E+03   -0.71340E-01   -0.38588E-01 15078   0.150E+00    0.243E+00
RMM:   3    -0.636483057182E+03    0.37753E-01   -0.40852E-02 12116   0.756E-01    0.743E-01
RMM:   4    -0.636482592831E+03    0.46435E-03   -0.13335E-02 14790   0.269E-01    0.551E-01
RMM:   5    -0.636480873818E+03    0.17190E-02   -0.26442E-03 13816   0.158E-01    0.233E-01
RMM:   6    -0.636480898667E+03   -0.24848E-04   -0.12448E-03 13483   0.919E-02    0.265E-01
RMM:   7    -0.636480588601E+03    0.31007E-03   -0.88937E-04 13848   0.867E-02    0.156E-01
RMM:   8    -0.636480848204E+03   -0.25960E-03   -0.71007E-04 13400   0.819E-02    0.279E-01
RMM:   9    -0.636480435729E+03    0.41247E-03   -0.41734E-04 13194   0.658E-02    0.467E-02
RMM:  10    -0.636480488961E+03   -0.53232E-04   -0.25496E-04 12232   0.381E-02    0.996E-02
RMM:  11    -0.636480451372E+03    0.37589E-04   -0.97530E-05 11443   0.309E-02    0.188E-02
RMM:  12    -0.636480459756E+03   -0.83841E-05   -0.65814E-05  9854   0.161E-02
  47 F= -.63648046E+03 E0= -.63642446E+03  d E =-.120140E-02
       N       E                     dE             d eps       ncg     rms          rms(c)
DAV:   1    -0.636479941316E+03    0.51006E-03   -0.20515E-02 13368   0.882E-01    0.781E-02
RMM:   2    -0.636481256987E+03   -0.13157E-02   -0.66480E-03 14918   0.199E-01    0.340E-01
RMM:   3    -0.636480527844E+03    0.72914E-03   -0.74976E-04 10375   0.104E-01    0.100E-01
RMM:   4    -0.636480516648E+03    0.11196E-04   -0.25293E-04 11460   0.394E-02    0.697E-02
RMM:   5    -0.636480494854E+03    0.21794E-04   -0.60854E-05 10029   0.244E-02    0.358E-02
RMM:   6    -0.636480493289E+03    0.15649E-05   -0.27891E-05  7489   0.177E-02
  48 F= -.63648049E+03 E0= -.63642452E+03  d E =-.123493E-02
       N       E                     dE             d eps       ncg     rms          rms(c)
DAV:   1    -0.636451394637E+03    0.29100E-01   -0.85268E-01 10104   0.578E+00    0.318E-01
RMM:   2    -0.636484083103E+03   -0.32688E-01   -0.30738E-01 15273   0.121E+00    0.772E-01
RMM:   3    -0.636482510306E+03    0.15728E-02   -0.26765E-02 11737   0.524E-01    0.419E-01
RMM:   4    -0.636483501748E+03   -0.99144E-03   -0.60922E-03 14232   0.186E-01    0.543E-01
RMM:   5    -0.636481927901E+03    0.15738E-02   -0.13695E-03 12978   0.124E-01    0.115E-01
RMM:   6    -0.636482056558E+03   -0.12866E-03   -0.83153E-04 12832   0.594E-02    0.202E-01
RMM:   7    -0.636481874824E+03    0.18173E-03   -0.37363E-04 12662   0.589E-02    0.968E-02
RMM:   8    -0.636481964420E+03   -0.89596E-04   -0.40834E-04 13163   0.532E-02    0.175E-01
RMM:   9    -0.636481805146E+03    0.15927E-03   -0.17415E-04 11680   0.446E-02    0.236E-02
RMM:  10    -0.636481812263E+03   -0.71169E-05   -0.13253E-04 11024   0.228E-02    0.238E-02
RMM:  11    -0.636481814675E+03   -0.24118E-05   -0.45242E-05  9522   0.223E-02
  49 F= -.63648181E+03 E0= -.63642587E+03  d E =-.132139E-02
       N       E                     dE             d eps       ncg     rms          rms(c)
DAV:   1    -0.636478958606E+03    0.28537E-02   -0.95571E-02 10848   0.191E+00    0.105E-01
RMM:   2    -0.636482433135E+03   -0.34745E-02   -0.31974E-02 15164   0.383E-01    0.277E-01
RMM:   3    -0.636482081862E+03    0.35127E-03   -0.23245E-03 10688   0.183E-01    0.132E-01
RMM:   4    -0.636482208348E+03   -0.12649E-03   -0.77387E-04 12927   0.663E-02    0.180E-01
RMM:   5    -0.636482035546E+03    0.17280E-03   -0.16424E-04 11190   0.429E-02    0.376E-02
RMM:   6    -0.636482052872E+03   -0.17326E-04   -0.11402E-04 11029   0.230E-02    0.676E-02
RMM:   7    -0.636482032500E+03    0.20372E-04   -0.53406E-05  9901   0.241E-02    0.304E-02
RMM:   8    -0.636482044374E+03   -0.11874E-04   -0.46703E-05  9641   0.194E-02    0.605E-02
RMM:   9    -0.636482026118E+03    0.18256E-04   -0.23451E-05  6518   0.188E-02    0.897E-03
RMM:  10    -0.636482029248E+03   -0.31304E-05   -0.20109E-05  6478   0.148E-02
  50 F= -.63648203E+03 E0= -.63642610E+03  d E =-.153596E-02
       N       E                     dE             d eps       ncg     rms          rms(c)
DAV:   1    -0.636469920068E+03    0.12106E-01   -0.38097E-01 10416   0.382E+00    0.210E-01
RMM:   2    -0.636483544238E+03   -0.13624E-01   -0.12672E-01 15209   0.766E-01    0.534E-01
RMM:   3    -0.636482382001E+03    0.11622E-02   -0.90197E-03 11496   0.359E-01    0.268E-01
RMM:   4    -0.636482853233E+03   -0.47123E-03   -0.28308E-03 13704   0.124E-01    0.356E-01
RMM:   5    -0.636482156456E+03    0.69678E-03   -0.56796E-04 12074   0.806E-02    0.724E-02
RMM:   6    -0.636482230128E+03   -0.73672E-04   -0.36588E-04 12170   0.410E-02    0.145E-01
RMM:   7    -0.636482133108E+03    0.97020E-04   -0.17303E-04 12014   0.407E-02    0.557E-02
RMM:   8    -0.636482154585E+03   -0.21477E-04   -0.17879E-04 12207   0.342E-02    0.924E-02
RMM:   9    -0.636482111430E+03    0.43155E-04   -0.67896E-05 10457   0.299E-02    0.168E-02
RMM:  10    -0.636482116547E+03   -0.51169E-05   -0.58397E-05  9405   0.163E-02
  51 F= -.63648212E+03 E0= -.63642621E+03  d E =-.162326E-02
       N       E                     dE             d eps       ncg     rms          rms(c)
DAV:   1    -0.636460715835E+03    0.21396E-01   -0.67560E-01 10152   0.508E+00    0.229E-01
RMM:   2    -0.636483046297E+03   -0.22330E-01   -0.21931E-01 15187   0.101E+00    0.546E-01
RMM:   3    -0.636483202731E+03   -0.15643E-03   -0.15141E-02 11465   0.403E-01    0.376E-01
RMM:   4    -0.636483159292E+03    0.43439E-04   -0.44803E-03 13922   0.138E-01    0.234E-01
RMM:   5    -0.636482882402E+03    0.27689E-03   -0.68914E-04 12676   0.788E-02    0.989E-02
RMM:   6    -0.636482900029E+03   -0.17627E-04   -0.39789E-04 12211   0.412E-02    0.103E-01
RMM:   7    -0.636482834112E+03    0.65917E-04   -0.19563E-04 12324   0.401E-02    0.538E-02
RMM:   8    -0.636482821098E+03    0.13014E-04   -0.24051E-04 12496   0.355E-02    0.502E-02
RMM:   9    -0.636482825484E+03   -0.43863E-05   -0.63402E-05 10464   0.299E-02
  52 F= -.63648283E+03 E0= -.63642691E+03  d E =-.708937E-03
       N       E                     dE             d eps       ncg     rms          rms(c)
DAV:   1    -0.636423645645E+03    0.59175E-01   -0.18459E+00 10176   0.842E+00    0.384E-01
RMM:   2    -0.636485281084E+03   -0.61635E-01   -0.59536E-01 15193   0.167E+00    0.102E+00
RMM:   3    -0.636484011642E+03    0.12694E-02   -0.40279E-02 11598   0.671E-01    0.575E-01
RMM:   4    -0.636484392374E+03   -0.38073E-03   -0.12735E-02 14487   0.231E-01    0.426E-01
RMM:   5    -0.636483416141E+03    0.97623E-03   -0.19072E-03 13167   0.133E-01    0.158E-01
RMM:   6    -0.636483485373E+03   -0.69232E-04   -0.12015E-03 12687   0.653E-02    0.173E-01
RMM:   7    -0.636483325757E+03    0.15962E-03   -0.55972E-04 13152   0.664E-02    0.110E-01
RMM:   8    -0.636483431771E+03   -0.10601E-03   -0.53841E-04 12733   0.583E-02    0.188E-01
RMM:   9    -0.636483255954E+03    0.17582E-03   -0.27749E-04 12441   0.520E-02    0.409E-02
RMM:  10    -0.636483310736E+03   -0.54782E-04   -0.19570E-04 11691   0.338E-02    0.104E-01
RMM:  11    -0.636483261681E+03    0.49055E-04   -0.79521E-05 10884   0.274E-02    0.142E-02
RMM:  12    -0.636483265233E+03   -0.35521E-05   -0.64102E-05  9538   0.161E-02
  53 F= -.63648327E+03 E0= -.63642736E+03  d E =-.114869E-02
       N       E                     dE             d eps       ncg     rms          rms(c)
DAV:   1    -0.636479001001E+03    0.42607E-02   -0.18113E-01  9936   0.242E+00    0.174E-01
RMM:   2    -0.636486573708E+03   -0.75727E-02   -0.53808E-02 15304   0.558E-01    0.641E-01
RMM:   3    -0.636484176114E+03    0.23976E-02   -0.59629E-03 11945   0.253E-01    0.218E-01
RMM:   4    -0.636484272403E+03   -0.96289E-04   -0.14946E-03 13497   0.970E-02    0.221E-01
RMM:   5    -0.636483994809E+03    0.27759E-03   -0.37299E-04 12344   0.605E-02    0.663E-02
RMM:   6    -0.636484022508E+03   -0.27698E-04   -0.20700E-04 11866   0.344E-02    0.102E-01
RMM:   7    -0.636483976977E+03    0.45530E-04   -0.11279E-04 11560   0.332E-02    0.483E-02
RMM:   8    -0.636484018789E+03   -0.41811E-04   -0.11489E-04 11159   0.315E-02    0.104E-01
RMM:   9    -0.636483963102E+03    0.55687E-04   -0.64754E-05 10417   0.282E-02    0.141E-02
RMM:  10    -0.636483970382E+03   -0.72793E-05   -0.51460E-05  9204   0.169E-02
  54 F= -.63648397E+03 E0= -.63642807E+03  d E =-.705148E-03
       N       E                     dE             d eps       ncg     rms          rms(c)
DAV:   1    -0.636479889370E+03    0.40737E-02   -0.15557E-01  9840   0.224E+00    0.162E-01
RMM:   2    -0.636486444024E+03   -0.65547E-02   -0.46362E-02 15292   0.518E-01    0.601E-01
RMM:   3    -0.636484352099E+03    0.20919E-02   -0.51672E-03 11865   0.236E-01    0.205E-01
RMM:   4    -0.636484433757E+03   -0.81658E-04   -0.13279E-03 13420   0.906E-02    0.204E-01
RMM:   5    -0.636484196944E+03    0.23681E-03   -0.32280E-04 12167   0.568E-02    0.580E-02
RMM:   6    -0.636484228195E+03   -0.31251E-04   -0.18547E-04 11763   0.323E-02    0.992E-02
RMM:   7    -0.636484184740E+03    0.43455E-04   -0.96711E-05 11352   0.310E-02    0.400E-02
RMM:   8    -0.636484208728E+03   -0.23988E-04   -0.10645E-04 11422   0.279E-02    0.793E-02
RMM:   9    -0.636484177277E+03    0.31451E-04   -0.45569E-05  9405   0.253E-02    0.132E-02
RMM:  10    -0.636484181948E+03   -0.46709E-05   -0.36748E-05  8707   0.151E-02
  55 F= -.63648418E+03 E0= -.63642829E+03  d E =-.916715E-03
       N       E                     dE             d eps       ncg     rms          rms(c)
DAV:   1    -0.636481739385E+03    0.24379E-02   -0.20069E-01 11280   0.229E+00    0.278E-01
RMM:   2    -0.636493518949E+03   -0.11780E-01   -0.49932E-02 14711   0.612E-01    0.108E+00
RMM:   3    -0.636485184024E+03    0.83349E-02   -0.69905E-03 12284   0.315E-01    0.271E-01
RMM:   4    -0.636485357092E+03   -0.17307E-03   -0.22352E-03 13877   0.115E-01    0.315E-01
RMM:   5    -0.636484801853E+03    0.55524E-03   -0.57549E-04 12584   0.825E-02    0.901E-02
RMM:   6    -0.636484886491E+03   -0.84637E-04   -0.36056E-04 12496   0.538E-02    0.171E-01
RMM:   7    -0.636484738818E+03    0.14767E-03   -0.22907E-04 12248   0.493E-02    0.644E-02
RMM:   8    -0.636484829269E+03   -0.90451E-04   -0.18137E-04 11816   0.412E-02    0.155E-01
RMM:   9    -0.636484715283E+03    0.11399E-03   -0.93944E-05 10582   0.330E-02    0.193E-02
RMM:  10    -0.636484715874E+03   -0.59084E-06   -0.62500E-05  9216   0.176E-02
  56 F= -.63648472E+03 E0= -.63642882E+03  d E =-.533926E-03
       N       E                     dE             d eps       ncg     rms          rms(c)
DAV:   1    -0.636484635653E+03    0.79630E-04   -0.81436E-03 11832   0.459E-01    0.583E-02
RMM:   2    -0.636485196270E+03   -0.56062E-03   -0.19642E-03 14079   0.122E-01    0.249E-01
RMM:   3    -0.636484770841E+03    0.42543E-03   -0.30721E-04  9544   0.719E-02    0.610E-02
RMM:   4    -0.636484771063E+03   -0.22191E-06   -0.11165E-04 10457   0.285E-02    0.552E-02
RMM:   5    -0.636484755349E+03    0.15714E-04   -0.29900E-05  7183   0.198E-02    0.244E-02
RMM:   6    -0.636484755665E+03   -0.31620E-06   -0.17374E-05  6247   0.166E-02
  57 F= -.63648476E+03 E0= -.63642885E+03  d E =-.573717E-03
       N       E                     dE             d eps       ncg     rms          rms(c)
DAV:   1    -0.636484319631E+03    0.43572E-03   -0.32260E-02 11712   0.916E-01    0.115E-01
RMM:   2    -0.636486397708E+03   -0.20781E-02   -0.77445E-03 14538   0.242E-01    0.475E-01
RMM:   3    -0.636484855744E+03    0.15420E-02   -0.11382E-03 10937   0.131E-01    0.131E-01
RMM:   4    -0.636484841745E+03    0.13998E-04   -0.37830E-04 12221   0.514E-02    0.110E-01
RMM:   5    -0.636484770823E+03    0.70922E-04   -0.10509E-04 10571   0.337E-02    0.379E-02
RMM:   6    -0.636484785747E+03   -0.14923E-04   -0.57216E-05  9097   0.250E-02    0.704E-02
RMM:   7    -0.636484760817E+03    0.24930E-04   -0.41775E-05  7726   0.225E-02    0.252E-02
RMM:   8    -0.636484770190E+03   -0.93728E-05   -0.26677E-05  6631   0.197E-02
  58 F= -.63648477E+03 E0= -.63642890E+03  d E =-.588241E-03
       N       E                     dE             d eps       ncg     rms          rms(c)
DAV:   1    -0.636482268829E+03    0.24920E-02   -0.17282E-01 10368   0.202E+00    0.120E-01
RMM:   2    -0.636486083793E+03   -0.38150E-02   -0.30603E-02 15102   0.424E-01    0.415E-01
RMM:   3    -0.636485217019E+03    0.86677E-03   -0.25195E-03 11856   0.204E-01    0.160E-01
RMM:   4    -0.636485297922E+03   -0.80902E-04   -0.93135E-04 13359   0.800E-02    0.167E-01
RMM:   5    -0.636485137254E+03    0.16067E-03   -0.24382E-04 11873   0.520E-02    0.581E-02
RMM:   6    -0.636485145052E+03   -0.77981E-05   -0.14532E-04 11417   0.283E-02    0.633E-02
RMM:   7    -0.636485123765E+03    0.21287E-04   -0.80663E-05 10896   0.281E-02    0.374E-02
RMM:   8    -0.636485147799E+03   -0.24033E-04   -0.62221E-05 10096   0.242E-02    0.832E-02
RMM:   9    -0.636485115544E+03    0.32255E-04   -0.33339E-05  7613   0.214E-02    0.137E-02
RMM:  10    -0.636485119672E+03   -0.41282E-05   -0.25761E-05  7148   0.158E-02
  59 F= -.63648512E+03 E0= -.63642933E+03  d E =-.349483E-03
       N       E                     dE             d eps       ncg     rms          rms(c)
DAV:   1    -0.636479020856E+03    0.60947E-02   -0.38526E-01 10368   0.301E+00    0.179E-01
RMM:   2    -0.636487320398E+03   -0.82995E-02   -0.67176E-02 15062   0.628E-01    0.594E-01
RMM:   3    -0.636485484280E+03    0.18361E-02   -0.53945E-03 11996   0.304E-01    0.237E-01
RMM:   4    -0.636485683760E+03   -0.19948E-03   -0.20611E-03 13660   0.117E-01    0.253E-01
RMM:   5    -0.636485320005E+03    0.36376E-03   -0.52439E-04 12434   0.746E-02    0.845E-02
RMM:   6    -0.636485335714E+03   -0.15709E-04   -0.30532E-04 11994   0.394E-02    0.923E-02
RMM:   7    -0.636485293450E+03    0.42263E-04   -0.16193E-04 12327   0.378E-02    0.516E-02
RMM:   8    -0.636485350508E+03   -0.57057E-04   -0.13847E-04 11496   0.345E-02    0.125E-01
RMM:   9    -0.636485278926E+03    0.71581E-04   -0.74969E-05 10623   0.292E-02    0.187E-02
RMM:  10    -0.636485287682E+03   -0.87554E-05   -0.60484E-05  9678   0.177E-02
  60 F= -.63648529E+03 E0= -.63642967E+03  d E =-.517492E-03
       N       E                     dE             d eps       ncg     rms          rms(c)
DAV:   1    -0.636482691416E+03    0.25875E-02   -0.16643E-01 10416   0.209E+00    0.139E-01
RMM:   2    -0.636486945053E+03   -0.42536E-02   -0.33594E-02 15002   0.438E-01    0.434E-01
RMM:   3    -0.636485852915E+03    0.10921E-02   -0.29114E-03 11345   0.215E-01    0.179E-01
RMM:   4    -0.636485960501E+03   -0.10759E-03   -0.10140E-03 13096   0.840E-02    0.206E-01
RMM:   5    -0.636485721631E+03    0.23887E-03   -0.26592E-04 11639   0.524E-02    0.531E-02
RMM:   6    -0.636485752702E+03   -0.31071E-04   -0.15850E-04 11456   0.326E-02    0.103E-01
RMM:   7    -0.636485708220E+03    0.44482E-04   -0.92432E-05 10789   0.307E-02    0.478E-02
RMM:   8    -0.636485737461E+03   -0.29241E-04   -0.94054E-05 10875   0.270E-02    0.900E-02
RMM:   9    -0.636485696336E+03    0.41125E-04   -0.41471E-05  7799   0.234E-02    0.110E-02
RMM:  10    -0.636485700098E+03   -0.37621E-05   -0.31988E-05  7597   0.164E-02
  61 F= -.63648570E+03 E0= -.63643019E+03  d E =-.412416E-03
       N       E                     dE             d eps       ncg     rms          rms(c)
DAV:   1    -0.636483675120E+03    0.20212E-02   -0.11582E-01 10392   0.174E+00    0.116E-01
RMM:   2    -0.636486621019E+03   -0.29459E-02   -0.23447E-02 14974   0.366E-01    0.355E-01
RMM:   3    -0.636485881813E+03    0.73921E-03   -0.21088E-03 11315   0.182E-01    0.145E-01
RMM:   4    -0.636485971201E+03   -0.89388E-04   -0.73457E-04 12834   0.714E-02    0.177E-01
RMM:   5    -0.636485801138E+03    0.17006E-03   -0.19754E-04 11381   0.451E-02    0.448E-02
RMM:   6    -0.636485823166E+03   -0.22028E-04   -0.12278E-04 11203   0.282E-02    0.841E-02
RMM:   7    -0.636485793392E+03    0.29774E-04   -0.68493E-05 10384   0.269E-02    0.394E-02
RMM:   8    -0.636485813975E+03   -0.20583E-04   -0.67797E-05 10382   0.231E-02    0.748E-02
RMM:   9    -0.636485785925E+03    0.28050E-04   -0.30464E-05  6978   0.206E-02    0.951E-03
RMM:  10    -0.636485788520E+03   -0.25944E-05   -0.23256E-05  6947   0.155E-02
  62 F= -.63648579E+03 E0= -.63643037E+03  d E =-.500838E-03
       N       E                     dE             d eps       ncg     rms          rms(c)
DAV:   1    -0.636483790596E+03    0.19953E-02   -0.18774E-01 11544   0.226E+00    0.301E-01
RMM:   2    -0.636497093570E+03   -0.13303E-01   -0.46719E-02 13988   0.604E-01    0.120E+00
RMM:   3    -0.636486520754E+03    0.10573E-01   -0.73487E-03 12239   0.332E-01    0.266E-01
RMM:   4    -0.636486754320E+03   -0.23357E-03   -0.24930E-03 14021   0.122E-01    0.327E-01
RMM:   5    -0.636486142150E+03    0.61217E-03   -0.57616E-04 12563   0.796E-02    0.877E-02
RMM:   6    -0.636486213276E+03   -0.71126E-04   -0.37082E-04 12380   0.538E-02    0.166E-01
RMM:   7    -0.636486068026E+03    0.14525E-03   -0.21621E-04 11466   0.505E-02    0.574E-02
RMM:   8    -0.636486118865E+03   -0.50838E-04   -0.18714E-04 12112   0.373E-02    0.125E-01
RMM:   9    -0.636486050544E+03    0.68321E-04   -0.73629E-05  9446   0.294E-02    0.277E-02
RMM:  10    -0.636486047649E+03    0.28952E-05   -0.46340E-05  8406   0.171E-02
  63 F= -.63648605E+03 E0= -.63643066E+03  d E =-.259129E-03
       N       E                     dE             d eps       ncg     rms          rms(c)
DAV:   1    -0.636486035487E+03    0.15056E-04   -0.13231E-03 12768   0.191E-01    0.292E-02
RMM:   2    -0.636486186565E+03   -0.15108E-03   -0.35067E-04 11673   0.556E-02    0.148E-01
RMM:   3    -0.636486050819E+03    0.13575E-03   -0.64087E-05  7022   0.354E-02    0.274E-02
RMM:   4    -0.636486049451E+03    0.13683E-05   -0.19379E-05  6003   0.177E-02
  64 F= -.63648605E+03 E0= -.63643066E+03  d E =-.260931E-03
       N       E                     dE             d eps       ncg     rms          rms(c)
DAV:   1    -0.636484649202E+03    0.14016E-02   -0.76048E-02 10392   0.147E+00    0.698E-02
RMM:   2    -0.636486413339E+03   -0.17641E-02   -0.15335E-02 15101   0.298E-01    0.254E-01
RMM:   3    -0.636486163478E+03    0.24986E-03   -0.10644E-03 11630   0.126E-01    0.817E-02
RMM:   4    -0.636486185201E+03   -0.21724E-04   -0.37859E-04 12274   0.479E-02    0.789E-02
RMM:   5    -0.636486157780E+03    0.27421E-04   -0.82962E-05 10004   0.307E-02    0.270E-02
RMM:   6    -0.636486162073E+03   -0.42935E-05   -0.49724E-05  9274   0.187E-02
  65 F= -.63648616E+03 E0= -.63643081E+03  d E =-.112623E-03
       N       E                     dE             d eps       ncg     rms          rms(c)
DAV:   1    -0.636486083874E+03    0.73906E-04   -0.42764E-03 11712   0.351E-01    0.323E-02
RMM:   2    -0.636486422548E+03   -0.33867E-03   -0.10156E-03 13296   0.771E-02    0.227E-01
RMM:   3    -0.636486167977E+03    0.25457E-03   -0.14041E-04  8423   0.512E-02    0.261E-02
RMM:   4    -0.636486171070E+03   -0.30929E-05   -0.50892E-05  8984   0.185E-02
  66 F= -.63648617E+03 E0= -.63643084E+03  d E =-.121619E-03
       N       E                     dE             d eps       ncg     rms          rms(c)
DAV:   1    -0.636486217742E+03   -0.49765E-04   -0.75603E-03 13008   0.458E-01    0.997E-02
RMM:   2    -0.636487464297E+03   -0.12466E-02   -0.24887E-03 12652   0.176E-01    0.415E-01
RMM:   3    -0.636486288725E+03    0.11756E-02   -0.60106E-04 10596   0.937E-02    0.105E-01
RMM:   4    -0.636486268321E+03    0.20404E-04   -0.14967E-04  9990   0.427E-02    0.839E-02
RMM:   5    -0.636486225736E+03    0.42585E-04   -0.58090E-05  8120   0.260E-02    0.324E-02
RMM:   6    -0.636486234085E+03   -0.83485E-05   -0.25997E-05  6069   0.201E-02
  67 F= -.63648623E+03 E0= -.63643091E+03  d E =-.630152E-04
       N       E                     dE             d eps       ncg     rms          rms(c)
DAV:   1    -0.636486166627E+03    0.59109E-04   -0.15912E-02 12864   0.672E-01    0.148E-01
RMM:   2    -0.636489077822E+03   -0.29112E-02   -0.55340E-03 12691   0.263E-01    0.636E-01
RMM:   3    -0.636486343339E+03    0.27345E-02   -0.13894E-03 11332   0.141E-01    0.159E-01
RMM:   4    -0.636486281633E+03    0.61706E-04   -0.32744E-04 11609   0.585E-02    0.114E-01
RMM:   5    -0.636486210644E+03    0.70989E-04   -0.11856E-04 10858   0.347E-02    0.592E-02
RMM:   6    -0.636486210536E+03    0.10768E-06   -0.56645E-05  8173   0.278E-02
  68 F= -.63648621E+03 E0= -.63643090E+03  d E =-.394667E-04
       N       E                     dE             d eps       ncg     rms          rms(c)
DAV:   1    -0.636486103957E+03    0.10669E-03   -0.41701E-03 13464   0.400E-01    0.438E-02
RMM:   2    -0.636486632151E+03   -0.52819E-03   -0.13874E-03 13304   0.936E-02    0.288E-01
RMM:   3    -0.636486215935E+03    0.41622E-03   -0.21084E-04  8401   0.590E-02    0.475E-02
RMM:   4    -0.636486211055E+03    0.48799E-05   -0.64942E-05  8528   0.230E-02
  69 F= -.63648621E+03 E0= -.63643089E+03  d E =-.518499E-06
