  64  64   0   0
  0.1129557E+02  0.8932500E-09  0.9055600E-09  0.8937200E-09  0.5000000E-15
  1.000000000000000E-004
  CAR 
 HECN                                    
     13.34716500    -60.55581640  301      7.82226844      1.00000000
    -60.556  0.0000E+00  0.0000E+00
    -60.309  0.0000E+00  0.0000E+00
    -60.063  0.0000E+00  0.0000E+00
    -59.817  0.0000E+00  0.0000E+00
    -59.570  0.0000E+00  0.0000E+00
    -59.324  0.0000E+00  0.0000E+00
    -59.078  0.0000E+00  0.0000E+00
    -58.831  0.0000E+00  0.0000E+00
    -58.585  0.0000E+00  0.0000E+00
    -58.339  0.0000E+00  0.0000E+00
    -58.092  0.0000E+00  0.0000E+00
    -57.846  0.0000E+00  0.0000E+00
    -57.600  0.4836E-09  0.1191E-09
    -57.353  0.1086E-02  0.2675E-03
    -57.107  0.1377E+00  0.3420E-01
    -56.861  0.4046E+00  0.1339E+00
    -56.614  0.2484E-01  0.1400E+00
    -56.368  0.6902E-06  0.1400E+00
    -56.122  0.2704E-15  0.1400E+00
    -55.875  0.0000E+00  0.1400E+00
    -55.629  0.0000E+00  0.1400E+00
    -55.383  0.0000E+00  0.1400E+00
    -55.136  0.0000E+00  0.1400E+00
    -54.890  0.0000E+00  0.1400E+00
    -54.644  0.0000E+00  0.1400E+00
    -54.397  0.0000E+00  0.1400E+00
    -54.151  0.0000E+00  0.1400E+00
    -53.905  0.0000E+00  0.1400E+00
    -53.658  0.0000E+00  0.1400E+00
    -53.412  0.0000E+00  0.1400E+00
    -53.166  0.0000E+00  0.1400E+00
    -52.919  0.0000E+00  0.1400E+00
    -52.673  0.0000E+00  0.1400E+00
    -52.426  0.0000E+00  0.1400E+00
    -52.180  0.0000E+00  0.1400E+00
    -51.934  0.0000E+00  0.1400E+00
    -51.687  0.0000E+00  0.1400E+00
    -51.441  0.0000E+00  0.1400E+00
    -51.195  0.0000E+00  0.1400E+00
    -50.948  0.0000E+00  0.1400E+00
    -50.702  0.0000E+00  0.1400E+00
    -50.456  0.0000E+00  0.1400E+00
    -50.209  0.0000E+00  0.1400E+00
    -49.963  0.0000E+00  0.1400E+00
    -49.717  0.0000E+00  0.1400E+00
    -49.470  0.0000E+00  0.1400E+00
    -49.224  0.0000E+00  0.1400E+00
    -48.978  0.0000E+00  0.1400E+00
    -48.731  0.0000E+00  0.1400E+00
    -48.485  0.0000E+00  0.1400E+00
    -48.239  0.0000E+00  0.1400E+00
    -47.992  0.0000E+00  0.1400E+00
    -47.746  0.0000E+00  0.1400E+00
    -47.500  0.0000E+00  0.1400E+00
    -47.253  0.0000E+00  0.1400E+00
    -47.007  0.0000E+00  0.1400E+00
    -46.761  0.0000E+00  0.1400E+00
    -46.514  0.0000E+00  0.1400E+00
    -46.268  0.0000E+00  0.1400E+00
    -46.022  0.0000E+00  0.1400E+00
    -45.775  0.0000E+00  0.1400E+00
    -45.529  0.0000E+00  0.1400E+00
    -45.283  0.0000E+00  0.1400E+00
    -45.036  0.0000E+00  0.1400E+00
    -44.790  0.0000E+00  0.1400E+00
    -44.544  0.0000E+00  0.1400E+00
    -44.297  0.0000E+00  0.1400E+00
    -44.051  0.0000E+00  0.1400E+00
    -43.804  0.0000E+00  0.1400E+00
    -43.558  0.0000E+00  0.1400E+00
    -43.312  0.0000E+00  0.1400E+00
    -43.065  0.0000E+00  0.1400E+00
    -42.819  0.0000E+00  0.1400E+00
    -42.573  0.0000E+00  0.1400E+00
    -42.326  0.0000E+00  0.1400E+00
    -42.080  0.0000E+00  0.1400E+00
    -41.834  0.0000E+00  0.1400E+00
    -41.587  0.0000E+00  0.1400E+00
    -41.341  0.0000E+00  0.1400E+00
    -41.095  0.0000E+00  0.1400E+00
    -40.848  0.0000E+00  0.1400E+00
    -40.602  0.0000E+00  0.1400E+00
    -40.356  0.0000E+00  0.1400E+00
    -40.109  0.0000E+00  0.1400E+00
    -39.863  0.0000E+00  0.1400E+00
    -39.617  0.0000E+00  0.1400E+00
    -39.370  0.0000E+00  0.1400E+00
    -39.124  0.0000E+00  0.1400E+00
    -38.878  0.0000E+00  0.1400E+00
    -38.631  0.0000E+00  0.1400E+00
    -38.385  0.0000E+00  0.1400E+00
    -38.139  0.0000E+00  0.1400E+00
    -37.892  0.0000E+00  0.1400E+00
    -37.646  0.0000E+00  0.1400E+00
    -37.400  0.0000E+00  0.1400E+00
    -37.153  0.0000E+00  0.1400E+00
    -36.907  0.0000E+00  0.1400E+00
    -36.661  0.0000E+00  0.1400E+00
    -36.414  0.1032E-09  0.1400E+00
    -36.168  0.6016E-03  0.1401E+00
    -35.921  0.1719E+00  0.1825E+00
    -35.675  0.9542E+00  0.4175E+00
    -35.429  0.3316E+00  0.4992E+00
    -35.182  0.3079E-02  0.5000E+00
    -34.936  0.4714E-08  0.5000E+00
    -34.690  0.0000E+00  0.5000E+00
    -34.443  0.0000E+00  0.5000E+00
    -34.197  0.0000E+00  0.5000E+00
    -33.951  0.0000E+00  0.5000E+00
    -33.704  0.0000E+00  0.5000E+00
    -33.458  0.0000E+00  0.5000E+00
    -33.212  0.0000E+00  0.5000E+00
    -32.965  0.0000E+00  0.5000E+00
    -32.719  0.0000E+00  0.5000E+00
    -32.473  0.0000E+00  0.5000E+00
    -32.226  0.0000E+00  0.5000E+00
    -31.980  0.0000E+00  0.5000E+00
    -31.734  0.6700E-14  0.5000E+00
    -31.487  0.4573E-05  0.5000E+00
    -31.241  0.4937E-01  0.5122E+00
    -30.995  0.8215E+00  0.7145E+00
    -30.748  0.7943E+00  0.9102E+00
    -30.502  0.3976E-01  0.9200E+00
    -30.256  0.1337E-05  0.9200E+00
    -30.009  0.5318E-15  0.9200E+00
    -29.763  0.0000E+00  0.9200E+00
    -29.517  0.0000E+00  0.9200E+00
    -29.270  0.0000E+00  0.9200E+00
    -29.024  0.0000E+00  0.9200E+00
    -28.778  0.0000E+00  0.9200E+00
    -28.531  0.0000E+00  0.9200E+00
    -28.285  0.2259E-07  0.9200E+00
    -28.039  0.6825E-02  0.9217E+00
    -27.792  0.3098E+00  0.9980E+00
    -27.546  0.3156E+00  0.1076E+01
    -27.299  0.5361E+00  0.1208E+01
    -27.053  0.2611E+00  0.1272E+01
    -26.807  0.3190E-01  0.1280E+01
    -26.560  0.1995E-05  0.1280E+01
    -26.314  0.1801E-14  0.1280E+01
    -26.068  0.0000E+00  0.1280E+01
    -25.821  0.0000E+00  0.1280E+01
    -25.575  0.0000E+00  0.1280E+01
    -25.329  0.0000E+00  0.1280E+01
    -25.082  0.0000E+00  0.1280E+01
    -24.836  0.0000E+00  0.1280E+01
    -24.590  0.0000E+00  0.1280E+01
    -24.343  0.0000E+00  0.1280E+01
    -24.097  0.0000E+00  0.1280E+01
    -23.851  0.2501E-09  0.1280E+01
    -23.604  0.8072E-03  0.1280E+01
    -23.358  0.8941E-01  0.1302E+01
    -23.112  0.2840E+00  0.1372E+01
    -22.865  0.3400E+00  0.1456E+01
    -22.619  0.2739E+00  0.1523E+01
    -22.373  0.4365E+00  0.1631E+01
    -22.126  0.2257E+00  0.1687E+01
    -21.880  0.5457E-01  0.1700E+01
    -21.634  0.3735E-05  0.1700E+01
    -21.387  0.3173E-14  0.1700E+01
    -21.141  0.0000E+00  0.1700E+01
    -20.895  0.0000E+00  0.1700E+01
    -20.648  0.0000E+00  0.1700E+01
    -20.402  0.0000E+00  0.1700E+01
    -20.156  0.0000E+00  0.1700E+01
    -19.909  0.0000E+00  0.1700E+01
    -19.663  0.0000E+00  0.1700E+01
    -19.416  0.0000E+00  0.1700E+01
    -19.170  0.0000E+00  0.1700E+01
    -18.924  0.0000E+00  0.1700E+01
    -18.677  0.0000E+00  0.1700E+01
    -18.431  0.0000E+00  0.1700E+01
    -18.185  0.0000E+00  0.1700E+01
    -17.938  0.0000E+00  0.1700E+01
    -17.692  0.0000E+00  0.1700E+01
    -17.446  0.0000E+00  0.1700E+01
    -17.199  0.0000E+00  0.1700E+01
    -16.953  0.0000E+00  0.1700E+01
    -16.707  0.0000E+00  0.1700E+01
    -16.460  0.0000E+00  0.1700E+01
    -16.214  0.0000E+00  0.1700E+01
    -15.968  0.0000E+00  0.1700E+01
    -15.721  0.0000E+00  0.1700E+01
    -15.475  0.0000E+00  0.1700E+01
    -15.229  0.0000E+00  0.1700E+01
    -14.982  0.0000E+00  0.1700E+01
    -14.736  0.0000E+00  0.1700E+01
    -14.490  0.0000E+00  0.1700E+01
    -14.243  0.0000E+00  0.1700E+01
    -13.997  0.0000E+00  0.1700E+01
    -13.751  0.0000E+00  0.1700E+01
    -13.504  0.0000E+00  0.1700E+01
    -13.258  0.0000E+00  0.1700E+01
    -13.012  0.0000E+00  0.1700E+01
    -12.765  0.0000E+00  0.1700E+01
    -12.519  0.0000E+00  0.1700E+01
    -12.273  0.0000E+00  0.1700E+01
    -12.026  0.0000E+00  0.1700E+01
    -11.780  0.0000E+00  0.1700E+01
    -11.534  0.0000E+00  0.1700E+01
    -11.287  0.0000E+00  0.1700E+01
    -11.041  0.0000E+00  0.1700E+01
    -10.794  0.0000E+00  0.1700E+01
    -10.548  0.0000E+00  0.1700E+01
    -10.302  0.0000E+00  0.1700E+01
    -10.055  0.0000E+00  0.1700E+01
     -9.809  0.0000E+00  0.1700E+01
     -9.563  0.0000E+00  0.1700E+01
     -9.316  0.0000E+00  0.1700E+01
     -9.070  0.4921E-10  0.1700E+01
     -8.824  0.9078E-04  0.1700E+01
     -8.577  0.2006E-01  0.1705E+01
     -8.331  0.6276E-01  0.1720E+01
     -8.085  0.7756E-01  0.1740E+01
     -7.838  0.8872E-01  0.1761E+01
     -7.592  0.1286E+00  0.1793E+01
     -7.346  0.1636E+00  0.1833E+01
     -7.099  0.1644E+00  0.1874E+01
     -6.853  0.1474E+00  0.1910E+01
     -6.607  0.1545E+00  0.1948E+01
     -6.360  0.4768E-01  0.1960E+01
     -6.114  0.4427E-04  0.1960E+01
     -5.868  0.6366E-12  0.1960E+01
     -5.621  0.3726E-12  0.1960E+01
     -5.375  0.1006E-04  0.1960E+01
     -5.129  0.1197E-01  0.1963E+01
     -4.882  0.6326E-01  0.1979E+01
     -4.636  0.3704E-01  0.1988E+01
     -4.390  0.9454E-01  0.2011E+01
     -4.143  0.1501E+00  0.2048E+01
     -3.897  0.2086E+00  0.2099E+01
     -3.651  0.2690E+00  0.2166E+01
     -3.404  0.2376E+00  0.2224E+01
     -3.158  0.2054E+00  0.2275E+01
     -2.911  0.1401E+00  0.2309E+01
     -2.665  0.8844E-01  0.2331E+01
     -2.419  0.3579E-01  0.2340E+01
     -2.172  0.7150E-03  0.2340E+01
     -1.926  0.1832E-07  0.2340E+01
     -1.680  0.0000E+00  0.2340E+01
     -1.433  0.0000E+00  0.2340E+01
     -1.187  0.0000E+00  0.2340E+01
     -0.941  0.1669E-18  0.2340E+01
     -0.694  0.2009E-08  0.2340E+01
     -0.448  0.2695E-03  0.2340E+01
     -0.202  0.6972E-02  0.2342E+01
      0.045  0.2832E-01  0.2349E+01
      0.291  0.1018E+00  0.2374E+01
      0.537  0.1062E+00  0.2400E+01
      0.784  0.1617E+00  0.2440E+01
      1.030  0.2508E+00  0.2502E+01
      1.276  0.3026E+00  0.2576E+01
      1.523  0.2568E+00  0.2639E+01
      1.769  0.3205E+00  0.2718E+01
      2.015  0.3199E+00  0.2797E+01
      2.262  0.3337E+00  0.2879E+01
      2.508  0.4399E+00  0.2988E+01
      2.754  0.5295E+00  0.3118E+01
      3.001  0.6212E+00  0.3271E+01
      3.247  0.6243E+00  0.3425E+01
      3.493  0.6218E+00  0.3578E+01
      3.740  0.5788E+00  0.3721E+01
      3.986  0.5114E+00  0.3847E+01
      4.232  0.3958E+00  0.3944E+01
      4.479  0.3500E+00  0.4030E+01
      4.725  0.3170E+00  0.4109E+01
      4.971  0.2553E+00  0.4171E+01
      5.218  0.1880E+00  0.4218E+01
      5.464  0.1325E+00  0.4250E+01
      5.711  0.7747E-01  0.4269E+01
      5.957  0.1571E+00  0.4308E+01
      6.203  0.2196E+00  0.4362E+01
      6.450  0.1889E+00  0.4409E+01
      6.696  0.1945E+00  0.4457E+01
      6.942  0.2189E+00  0.4511E+01
      7.189  0.2646E+00  0.4576E+01
      7.435  0.3044E+00  0.4651E+01
      7.681  0.2773E+00  0.4719E+01
      7.928  0.2916E+00  0.4791E+01
      8.174  0.3556E+00  0.4879E+01
      8.420  0.4819E+00  0.4997E+01
      8.667  0.5807E+00  0.5140E+01
      8.913  0.5233E+00  0.5269E+01
      9.159  0.5092E+00  0.5395E+01
      9.406  0.4730E+00  0.5511E+01
      9.652  0.4568E+00  0.5624E+01
      9.898  0.4105E+00  0.5725E+01
     10.145  0.1424E+00  0.5760E+01
     10.391  0.4376E-03  0.5760E+01
     10.637  0.1009E-09  0.5760E+01
     10.884  0.0000E+00  0.5760E+01
     11.130  0.0000E+00  0.5760E+01
     11.376  0.0000E+00  0.5760E+01
     11.623  0.0000E+00  0.5760E+01
     11.869  0.0000E+00  0.5760E+01
     12.115  0.0000E+00  0.5760E+01
     12.362  0.0000E+00  0.5760E+01
     12.608  0.0000E+00  0.5760E+01
     12.854  0.0000E+00  0.5760E+01
     13.101  0.0000E+00  0.5760E+01
     13.347  0.0000E+00  0.5760E+01
