 running on   24 total cores
 distrk:  each k-point on   24 cores,    1 groups
 distr:  one band on    1 cores,   24 groups
 using from now: INCAR     
 vasp.5.4.4.18Apr17-6-g9f103f2a35 (build Oct 18 2021 20:38:43) complex          
  
 POSCAR found type information on POSCAR  V  Ta Hf N  C  Cr Mo
 POSCAR found :  7 types and      64 ions
 scaLAPACK will be used

 ----------------------------------------------------------------------------- 
|                                                                             |
|           W    W    AA    RRRRR   N    N  II  N    N   GGGG   !!!           |
|           W    W   A  A   R    R  NN   N  II  NN   N  G    G  !!!           |
|           W    W  A    A  R    R  N N  N  II  N N  N  G       !!!           |
|           W WW W  AAAAAA  RRRRR   N  N N  II  N  N N  G  GGG   !            |
|           WW  WW  A    A  R   R   N   NN  II  N   NN  G    G                |
|           W    W  A    A  R    R  N    N  II  N    N   GGGG   !!!           |
|                                                                             |
|      For optimal performance we recommend to set                            |
|        NCORE= 4 - approx SQRT( number of cores)                             |
|      NCORE specifies how many cores store one orbital (NPAR=cpu/NCORE).     |
|      This setting can  greatly improve the performance of VASP for DFT.     |
|      The default,   NCORE=1            might be grossly inefficient         |
|      on modern multi-core architectures or massively parallel machines.     |
|      Do your own testing !!!!                                               |
|      Unfortunately you need to use the default for GW and RPA calculations. |
|      (for HF NCORE is supported but not extensively tested yet)             |
|                                                                             |
 ----------------------------------------------------------------------------- 


 ----------------------------------------------------------------------------- 
|                                                                             |
|  ADVICE TO THIS USER RUNNING 'VASP/VAMP'   (HEAR YOUR MASTER'S VOICE ...):  |
|                                                                             |
|      You have a (more or less) 'large supercell' and for larger cells       |
|      it might be more efficient to use real space projection operators      |
|      So try LREAL= Auto  in the INCAR   file.                               |
|      Mind: If you want to do a very accurate calculations keep the          |
|      reciprocal projection scheme          (i.e. LREAL=.FALSE.)             |
|                                                                             |
 ----------------------------------------------------------------------------- 

 LDA part: xc-table for Pade appr. of Perdew
 POSCAR, INCAR and KPOINTS ok, starting setup
 FFT: planning ...
 WAVECAR not read
 entering main loop
       N       E                     dE             d eps       ncg     rms          rms(c)
DAV:   1     0.565491405898E+04    0.56549E+04   -0.20282E+05  8304   0.150E+03
DAV:   2     0.166698857984E+03   -0.54882E+04   -0.53179E+04  8184   0.532E+02
DAV:   3    -0.692106648312E+03   -0.85881E+03   -0.80095E+03 12120   0.183E+02
DAV:   4    -0.789238160301E+03   -0.97132E+02   -0.93644E+02 13200   0.723E+01
DAV:   5    -0.795554254376E+03   -0.63161E+01   -0.60853E+01 13224   0.174E+01    0.794E+01
RMM:   6    -0.941378062793E+03   -0.14582E+03   -0.30752E+03 11185   0.155E+02    0.119E+02
RMM:   7    -0.671247942470E+03    0.27013E+03   -0.33095E+02 11211   0.537E+01    0.628E+01
RMM:   8    -0.659387306556E+03    0.11861E+02   -0.87521E+01 11012   0.212E+01    0.452E+01
RMM:   9    -0.641692324731E+03    0.17695E+02   -0.24515E+01 10969   0.131E+01    0.222E+01
RMM:  10    -0.640677668963E+03    0.10147E+01   -0.80099E+00 11131   0.745E+00    0.194E+01
RMM:  11    -0.640329049481E+03    0.34862E+00   -0.60553E+00 10919   0.577E+00    0.181E+01
RMM:  12    -0.638789527233E+03    0.15395E+01   -0.33545E+00 10943   0.463E+00    0.134E+01
RMM:  13    -0.639069671237E+03   -0.28014E+00   -0.25050E+00 10830   0.371E+00    0.151E+01
RMM:  14    -0.638913216492E+03    0.15645E+00   -0.32948E+00 11292   0.371E+00    0.130E+01
RMM:  15    -0.638432250053E+03    0.48097E+00   -0.12173E+00 10865   0.287E+00    0.896E+00
RMM:  16    -0.638390987244E+03    0.41263E-01   -0.76728E-01 10849   0.212E+00    0.832E+00
RMM:  17    -0.638071663105E+03    0.31932E+00   -0.35258E-01 10913   0.143E+00    0.319E+00
RMM:  18    -0.638072680998E+03   -0.10179E-02   -0.23974E-01 11033   0.877E-01    0.365E+00
RMM:  19    -0.638033597095E+03    0.39084E-01   -0.23318E-01 11291   0.877E-01    0.252E+00
RMM:  20    -0.638010839355E+03    0.22758E-01   -0.12740E-01 11587   0.542E-01    0.105E+00
RMM:  21    -0.638019444353E+03   -0.86050E-02   -0.54940E-02 11123   0.437E-01    0.192E+00
RMM:  22    -0.638009297174E+03    0.10147E-01   -0.29373E-02 11165   0.358E-01    0.750E-01
RMM:  23    -0.638009411387E+03   -0.11421E-03   -0.18246E-02 11181   0.231E-01    0.708E-01
RMM:  24    -0.638007236355E+03    0.21750E-02   -0.13045E-02 11080   0.246E-01    0.416E-01
RMM:  25    -0.638007744442E+03   -0.50809E-03   -0.78581E-03 11178   0.153E-01    0.407E-01
RMM:  26    -0.638006793299E+03    0.95114E-03   -0.31483E-03 10609   0.104E-01    0.768E-02
RMM:  27    -0.638006985785E+03   -0.19249E-03   -0.17147E-03  9960   0.563E-02    0.154E-01
RMM:  28    -0.638006897499E+03    0.88286E-04   -0.78422E-04  8690   0.413E-02    0.438E-02
RMM:  29    -0.638006909240E+03   -0.11741E-04   -0.37859E-04  7376   0.254E-02    0.185E-02
RMM:  30    -0.638006921971E+03   -0.12731E-04   -0.20571E-04  5826   0.195E-02    0.104E-02
RMM:  31    -0.638006922590E+03   -0.61921E-06   -0.77558E-05  5450   0.136E-02
   1 F= -.63800692E+03 E0= -.63787383E+03  d E =-.638007E+03
 curvature:   0.00 expect dE= 0.000E+00 dE for cont linesearch  0.000E+00
 trial: gam= 0.00000 g(F)=  0.412E+01 g(S)=  0.164E+02 ort = 0.000E+00 (trialstep = 0.100E+01)
 search vector abs. value=  0.205E+02
 bond charge predicted
       N       E                     dE             d eps       ncg     rms          rms(c)
DAV:   1    -0.776875571464E+03   -0.13887E+03   -0.41796E+03 11736   0.322E+02    0.878E+01
RMM:   2    -0.868403365248E+03   -0.91528E+02   -0.18217E+03  9320   0.171E+02    0.912E+01
RMM:   3    -0.671705436604E+03    0.19670E+03   -0.15654E+02 10344   0.503E+01    0.579E+01
RMM:   4    -0.654168433784E+03    0.17537E+02   -0.60897E+01 11109   0.235E+01    0.338E+01
RMM:   5    -0.655555677582E+03   -0.13872E+01   -0.53990E+01 10505   0.245E+01    0.457E+01
RMM:   6    -0.637708227993E+03    0.17847E+02   -0.18017E+01 10128   0.169E+01    0.179E+01
RMM:   7    -0.638076480926E+03   -0.36825E+00   -0.88072E+00 10548   0.978E+00    0.206E+01
RMM:   8    -0.635482328874E+03    0.25942E+01   -0.36414E+00 10749   0.575E+00    0.933E+00
RMM:   9    -0.635241714533E+03    0.24061E+00   -0.19119E+00 11162   0.307E+00    0.668E+00
RMM:  10    -0.635083472345E+03    0.15824E+00   -0.67438E-01 10596   0.265E+00    0.628E+00
RMM:  11    -0.634954292730E+03    0.12918E+00   -0.30407E-01 10577   0.172E+00    0.329E+00
RMM:  12    -0.635005627924E+03   -0.51335E-01   -0.25039E-01 10937   0.134E+00    0.437E+00
RMM:  13    -0.634920965298E+03    0.84663E-01   -0.10060E-01 10007   0.113E+00    0.195E+00
RMM:  14    -0.634917678710E+03    0.32866E-02   -0.10437E-01 11133   0.750E-01    0.141E+00
RMM:  15    -0.634905877967E+03    0.11801E-01   -0.48387E-02 11341   0.485E-01    0.540E-01
RMM:  16    -0.634908528794E+03   -0.26508E-02   -0.21164E-02 11210   0.292E-01    0.748E-01
RMM:  17    -0.634905439429E+03    0.30894E-02   -0.81699E-03 10525   0.228E-01    0.369E-01
RMM:  18    -0.634905529046E+03   -0.89617E-04   -0.49936E-03 10298   0.141E-01    0.313E-01
RMM:  19    -0.634905564794E+03   -0.35748E-04   -0.24859E-03 10402   0.104E-01    0.266E-01
RMM:  20    -0.634905172365E+03    0.39243E-03   -0.12672E-03  9644   0.744E-02    0.661E-02
RMM:  21    -0.634905174412E+03   -0.20475E-05   -0.63965E-04  8561   0.404E-02    0.368E-02
RMM:  22    -0.634905184077E+03   -0.96651E-05   -0.21738E-04  6799   0.295E-02    0.457E-02
RMM:  23    -0.634905167953E+03    0.16125E-04   -0.86716E-05  5784   0.213E-02    0.136E-02
RMM:  24    -0.634905170098E+03   -0.21458E-05   -0.42574E-05  5381   0.180E-02
   2 F= -.63490517E+03 E0= -.63481430E+03  d E =0.310175E+01
 trial-energy change:    3.101752  1 .order    4.883329  -20.492943   30.259601
 step:   0.4560(harm=  0.4038)  dis= 0.04224  next Energy=  -642.848572 (dE=-0.484E+01)
 bond charge predicted
       N       E                     dE             d eps       ncg     rms          rms(c)
DAV:   1    -0.710520173069E+03   -0.75615E+02   -0.14169E+03 10968   0.168E+02    0.852E+01
RMM:   2    -0.983100602700E+03   -0.27258E+03   -0.10799E+03 11311   0.847E+01    0.893E+01
RMM:   3    -0.686889282716E+03    0.29621E+03   -0.17467E+02 10227   0.525E+01    0.455E+01
RMM:   4    -0.660108668960E+03    0.26781E+02   -0.63052E+01 10588   0.264E+01    0.355E+01
RMM:   5    -0.650081957000E+03    0.10027E+02   -0.23460E+01 10599   0.171E+01    0.270E+01
RMM:   6    -0.646736517735E+03    0.33454E+01   -0.19870E+01 10300   0.145E+01    0.242E+01
RMM:   7    -0.645891758678E+03    0.84476E+00   -0.10135E+01 10819   0.797E+00    0.227E+01
RMM:   8    -0.647107079239E+03   -0.12153E+01   -0.49451E+00 10042   0.776E+00    0.220E+01
RMM:   9    -0.644977157130E+03    0.21299E+01   -0.24450E+00 10657   0.476E+00    0.166E+01
RMM:  10    -0.643276937512E+03    0.17002E+01   -0.14086E+00 10321   0.388E+00    0.774E+00
RMM:  11    -0.643872061613E+03   -0.59512E+00   -0.26990E+00 10996   0.356E+00    0.108E+01
RMM:  12    -0.643115510454E+03    0.75655E+00   -0.73311E-01  9898   0.335E+00    0.615E+00
RMM:  13    -0.642964698575E+03    0.15081E+00   -0.55114E-01 10904   0.169E+00    0.246E+00
RMM:  14    -0.643077795475E+03   -0.11310E+00   -0.30371E-01 11084   0.115E+00    0.451E+00
RMM:  15    -0.642983801250E+03    0.93994E-01   -0.83318E-02 10482   0.931E-01    0.261E+00
RMM:  16    -0.642949666640E+03    0.34135E-01   -0.43562E-02 10250   0.624E-01    0.168E+00
RMM:  17    -0.642961450678E+03   -0.11784E-01   -0.34678E-02 11159   0.407E-01    0.238E+00
RMM:  18    -0.642940654003E+03    0.20797E-01   -0.21434E-02 10791   0.322E-01    0.161E+00
RMM:  19    -0.642923122601E+03    0.17531E-01   -0.44526E-02 10998   0.508E-01    0.349E-01
RMM:  20    -0.642925141160E+03   -0.20186E-02   -0.27323E-02 11061   0.208E-01    0.312E-01
RMM:  21    -0.642924802892E+03    0.33827E-03   -0.49641E-03 10607   0.106E-01    0.269E-01
RMM:  22    -0.642924382388E+03    0.42050E-03   -0.14565E-03  9998   0.688E-02    0.215E-01
RMM:  23    -0.642924073635E+03    0.30875E-03   -0.78079E-04  9591   0.624E-02    0.120E-01
RMM:  24    -0.642923999223E+03    0.74412E-04   -0.90655E-04  9995   0.611E-02    0.565E-02
RMM:  25    -0.642924028438E+03   -0.29215E-04   -0.30943E-04  8781   0.325E-02    0.594E-02
RMM:  26    -0.642924000499E+03    0.27939E-04   -0.54036E-05  5655   0.233E-02    0.377E-02
RMM:  27    -0.642923998989E+03    0.15097E-05   -0.42724E-05  5582   0.153E-02
   3 F= -.64292400E+03 E0= -.64281198E+03  d E =-.491708E+01
 curvature:  -0.20 expect dE=-0.107E+01 dE for cont linesearch -0.933E-02
 trial: gam= 0.21266 g(F)=  0.468E+01 g(S)=  0.654E+00 ort = 0.977E+00 (trialstep = 0.891E+00)
 search vector abs. value=  0.668E+01
 bond charge predicted
       N       E                     dE             d eps       ncg     rms          rms(c)
DAV:   1    -0.637260592426E+03    0.56634E+01   -0.88701E+02  8736   0.133E+02    0.651E+00
RMM:   2    -0.650944206194E+03   -0.13684E+02   -0.95455E+01 11698   0.328E+01    0.276E+01
RMM:   3    -0.646284833045E+03    0.46594E+01   -0.10135E+01 10890   0.125E+01    0.917E+00
RMM:   4    -0.646036155932E+03    0.24868E+00   -0.26604E+00 11205   0.464E+00    0.792E+00
RMM:   5    -0.645910130348E+03    0.12603E+00   -0.10021E+00 11004   0.271E+00    0.592E+00
RMM:   6    -0.645779760009E+03    0.13037E+00   -0.54786E-01 11190   0.170E+00    0.430E+00
RMM:   7    -0.645748015721E+03    0.31744E-01   -0.33925E-01 10914   0.138E+00    0.392E+00
RMM:   8    -0.645800777712E+03   -0.52762E-01   -0.26970E-01 10832   0.147E+00    0.520E+00
RMM:   9    -0.645649453761E+03    0.15132E+00   -0.16773E-01 10601   0.127E+00    0.156E+00
RMM:  10    -0.645673111820E+03   -0.23658E-01   -0.10772E-01 11166   0.719E-01    0.271E+00
RMM:  11    -0.645653231162E+03    0.19881E-01   -0.45563E-02 10204   0.681E-01    0.155E+00
RMM:  12    -0.645641222465E+03    0.12009E-01   -0.36342E-02 11091   0.390E-01    0.422E-01
RMM:  13    -0.645641885471E+03   -0.66301E-03   -0.21763E-02 11169   0.212E-01    0.433E-01
RMM:  14    -0.645641110094E+03    0.77538E-03   -0.70605E-03 10687   0.151E-01    0.258E-01
RMM:  15    -0.645641073912E+03    0.36182E-04   -0.36995E-03 10537   0.100E-01    0.219E-01
RMM:  16    -0.645641112772E+03   -0.38860E-04   -0.15902E-03  9369   0.835E-02    0.222E-01
RMM:  17    -0.645641137258E+03   -0.24486E-04   -0.92096E-04  9207   0.680E-02    0.193E-01
RMM:  18    -0.645640965261E+03    0.17200E-03   -0.59351E-04  9134   0.499E-02    0.546E-02
RMM:  19    -0.645641015262E+03   -0.50000E-04   -0.35140E-04  7989   0.356E-02    0.862E-02
RMM:  20    -0.645640980167E+03    0.35095E-04   -0.12946E-04  6211   0.275E-02    0.443E-02
RMM:  21    -0.645640981619E+03   -0.14520E-05   -0.85948E-05  5748   0.239E-02
   4 F= -.64564098E+03 E0= -.64553758E+03  d E =-.271698E+01
 trial-energy change:   -2.716983  1 .order   -2.762979   -4.939789   -0.586169
 step:   1.0206(harm=  1.0112)  dis= 0.10772  next Energy=  -645.683390 (dE=-0.276E+01)
 bond charge predicted
       N       E                     dE             d eps       ncg     rms          rms(c)
DAV:   1    -0.645489784876E+03    0.15120E+00   -0.18634E+01  8736   0.196E+01    0.961E-01
RMM:   2    -0.645821403704E+03   -0.33162E+00   -0.22633E+00 11641   0.509E+00    0.491E+00
RMM:   3    -0.645701964095E+03    0.11944E+00   -0.19796E-01 10706   0.154E+00    0.179E+00
RMM:   4    -0.645692500714E+03    0.94634E-02   -0.61795E-02 11127   0.624E-01    0.118E+00
RMM:   5    -0.645688443610E+03    0.40571E-02   -0.22149E-02 10791   0.365E-01    0.759E-01
RMM:   6    -0.645686237237E+03    0.22064E-02   -0.11262E-02 10883   0.253E-01    0.644E-01
RMM:   7    -0.645685344657E+03    0.89258E-03   -0.66680E-03 10695   0.189E-01    0.558E-01
RMM:   8    -0.645686111616E+03   -0.76696E-03   -0.61103E-03 10516   0.210E-01    0.671E-01
RMM:   9    -0.645684244059E+03    0.18676E-02   -0.33525E-03  9833   0.195E-01    0.480E-01
RMM:  10    -0.645683479191E+03    0.76487E-03   -0.18846E-03  9199   0.135E-01    0.255E-01
RMM:  11    -0.645683679049E+03   -0.19986E-03   -0.16297E-03  9768   0.937E-02    0.304E-01
RMM:  12    -0.645683320614E+03    0.35844E-03   -0.65273E-04  8371   0.822E-02    0.140E-01
RMM:  13    -0.645683277591E+03    0.43024E-04   -0.55084E-04  8763   0.469E-02    0.728E-02
RMM:  14    -0.645683260515E+03    0.17076E-04   -0.25546E-04  7355   0.292E-02    0.469E-02
RMM:  15    -0.645683267041E+03   -0.65266E-05   -0.90562E-05  5745   0.231E-02
   5 F= -.64568327E+03 E0= -.64558110E+03  d E =-.275927E+01
 curvature:  -0.61 expect dE=-0.853E+00 dE for cont linesearch -0.156E-04
 trial: gam= 0.19351 g(F)=  0.122E+01 g(S)=  0.186E+00 ort =-0.131E-01 (trialstep = 0.917E+00)
 search vector abs. value=  0.165E+01
 bond charge predicted
       N       E                     dE             d eps       ncg     rms          rms(c)
DAV:   1    -0.642444052955E+03    0.32392E+01   -0.33077E+02 10512   0.114E+02    0.126E+01
RMM:   2    -0.661928569382E+03   -0.19485E+02   -0.85897E+01 11450   0.293E+01    0.355E+01
RMM:   3    -0.648159795719E+03    0.13769E+02   -0.11028E+01  9981   0.139E+01    0.143E+01
RMM:   4    -0.647165774694E+03    0.99402E+00   -0.34927E+00 11045   0.527E+00    0.103E+01
RMM:   5    -0.646743514455E+03    0.42226E+00   -0.10197E+00 10343   0.364E+00    0.703E+00
RMM:   6    -0.646543145977E+03    0.20037E+00   -0.46871E-01 10423   0.234E+00    0.477E+00
RMM:   7    -0.646490805416E+03    0.52341E-01   -0.30831E-01 10864   0.143E+00    0.366E+00
RMM:   8    -0.646516012829E+03   -0.25207E-01   -0.19226E-01 10425   0.136E+00    0.452E+00
RMM:   9    -0.646416309057E+03    0.99704E-01   -0.11220E-01 10277   0.115E+00    0.163E+00
RMM:  10    -0.646450776791E+03   -0.34468E-01   -0.10052E-01 10953   0.850E-01    0.313E+00
RMM:  11    -0.646411139931E+03    0.39637E-01   -0.39272E-02 10160   0.670E-01    0.124E+00
RMM:  12    -0.646406642052E+03    0.44979E-02   -0.33851E-02 10919   0.401E-01    0.750E-01
RMM:  13    -0.646405325248E+03    0.13168E-02   -0.17589E-02 10920   0.265E-01    0.630E-01
RMM:  14    -0.646404433128E+03    0.89212E-03   -0.69851E-03  9679   0.201E-01    0.414E-01
RMM:  15    -0.646404549419E+03   -0.11629E-03   -0.47075E-03 10103   0.126E-01    0.331E-01
RMM:  16    -0.646403940504E+03    0.60892E-03   -0.23398E-03  9832   0.874E-02    0.960E-02
RMM:  17    -0.646404100927E+03   -0.16042E-03   -0.11607E-03  9545   0.587E-02    0.161E-01
RMM:  18    -0.646404044801E+03    0.56126E-04   -0.49208E-04  8446   0.551E-02    0.130E-01
RMM:  19    -0.646403985912E+03    0.58890E-04   -0.29687E-04  7989   0.429E-02    0.536E-02
RMM:  20    -0.646403986169E+03   -0.25708E-06   -0.20155E-04  7022   0.265E-02    0.249E-02
RMM:  21    -0.646403990924E+03   -0.47551E-05   -0.91513E-05  5773   0.197E-02
   6 F= -.64640399E+03 E0= -.64630759E+03  d E =-.720724E+00
 trial-energy change:   -0.720724  1 .order   -0.721848   -1.289885   -0.153810
 step:   1.0412(harm=  1.0412)  dis= 0.04909  next Energy=  -646.415527 (dE=-0.732E+00)
 bond charge predicted
       N       E                     dE             d eps       ncg     rms          rms(c)
DAV:   1    -0.646337319746E+03    0.66666E-01   -0.59811E+00 11184   0.157E+01    0.165E+00
RMM:   2    -0.646715587479E+03   -0.37827E+00   -0.16396E+00 11172   0.421E+00    0.614E+00
RMM:   3    -0.646501149453E+03    0.21444E+00   -0.23727E-01  9998   0.202E+00    0.400E+00
RMM:   4    -0.646434526256E+03    0.66623E-01   -0.69729E-02 10253   0.913E-01    0.183E+00
RMM:   5    -0.646421677189E+03    0.12849E-01   -0.29470E-02 10319   0.560E-01    0.946E-01
RMM:   6    -0.646421726080E+03   -0.48891E-04   -0.12523E-02 10746   0.329E-01    0.110E+00
RMM:   7    -0.646416374210E+03    0.53519E-02   -0.49926E-03  9957   0.238E-01    0.453E-01
RMM:   8    -0.646416894350E+03   -0.52014E-03   -0.47201E-03 10519   0.186E-01    0.547E-01
RMM:   9    -0.646416363853E+03    0.53050E-03   -0.28826E-03  9990   0.190E-01    0.510E-01
RMM:  10    -0.646415167806E+03    0.11960E-02   -0.17202E-03  9787   0.140E-01    0.171E-01
RMM:  11    -0.646415316427E+03   -0.14862E-03   -0.11945E-03  9795   0.837E-02    0.244E-01
RMM:  12    -0.646415050887E+03    0.26554E-03   -0.40833E-04  8049   0.658E-02    0.961E-02
RMM:  13    -0.646415058696E+03   -0.78090E-05   -0.36610E-04  8466   0.402E-02    0.780E-02
RMM:  14    -0.646415030476E+03    0.28220E-04   -0.17293E-04  6815   0.277E-02    0.319E-02
RMM:  15    -0.646415034366E+03   -0.38909E-05   -0.81172E-05  6026   0.207E-02
   7 F= -.64641503E+03 E0= -.64631916E+03  d E =-.731767E+00
 curvature:  -0.61 expect dE=-0.607E+00 dE for cont linesearch -0.525E-05
 trial: gam= 0.68433 g(F)=  0.436E+00 g(S)=  0.556E+00 ort = 0.377E-02 (trialstep = 0.879E+00)
 search vector abs. value=  0.177E+01
 bond charge predicted
       N       E                     dE             d eps       ncg     rms          rms(c)
DAV:   1    -0.641807941067E+03    0.46071E+01   -0.33578E+02 10944   0.123E+02    0.113E+01
RMM:   2    -0.659891751996E+03   -0.18084E+02   -0.92702E+01 10588   0.337E+01    0.344E+01
RMM:   3    -0.648581940847E+03    0.11310E+02   -0.10894E+01 10037   0.140E+01    0.168E+01
RMM:   4    -0.647110347504E+03    0.14716E+01   -0.34738E+00 11253   0.517E+00    0.683E+00
RMM:   5    -0.647102564236E+03    0.77833E-02   -0.76094E-01 10580   0.263E+00    0.728E+00
RMM:   6    -0.646779628704E+03    0.32294E+00   -0.41813E-01 10727   0.201E+00    0.310E+00
RMM:   7    -0.646822737406E+03   -0.43109E-01   -0.29005E-01 10837   0.154E+00    0.453E+00
RMM:   8    -0.646850634343E+03   -0.27897E-01   -0.22807E-01  9833   0.181E+00    0.500E+00
RMM:   9    -0.646705065700E+03    0.14557E+00   -0.12674E-01 10384   0.121E+00    0.158E+00
RMM:  10    -0.646700295678E+03    0.47700E-02   -0.58319E-02 10891   0.621E-01    0.110E+00
RMM:  11    -0.646698024446E+03    0.22712E-02   -0.32361E-02 11285   0.344E-01    0.604E-01
RMM:  12    -0.646696314446E+03    0.17100E-02   -0.15361E-02 10849   0.204E-01    0.299E-01
RMM:  13    -0.646697234511E+03   -0.92007E-03   -0.55702E-03  9706   0.175E-01    0.505E-01
RMM:  14    -0.646696187671E+03    0.10468E-02   -0.26048E-03  9867   0.137E-01    0.178E-01
RMM:  15    -0.646696405878E+03   -0.21821E-03   -0.21052E-03  9919   0.854E-02    0.218E-01
RMM:  16    -0.646696328807E+03    0.77071E-04   -0.93181E-04  9401   0.750E-02    0.179E-01
RMM:  17    -0.646696225188E+03    0.10362E-03   -0.48090E-04  8250   0.572E-02    0.836E-02
RMM:  18    -0.646696230594E+03   -0.54062E-05   -0.32587E-04  7986   0.337E-02    0.547E-02
RMM:  19    -0.646696221726E+03    0.88678E-05   -0.16430E-04  6445   0.242E-02    0.200E-02
RMM:  20    -0.646696221687E+03    0.39210E-07   -0.68438E-05  5664   0.178E-02
   8 F= -.64669622E+03 E0= -.64660874E+03  d E =-.281187E+00
 trial-energy change:   -0.281187  1 .order   -0.252719   -0.874637    0.369199
 step:   0.6420(harm=  0.6183)  dis= 0.03906  next Energy=  -646.745462 (dE=-0.330E+00)
 bond charge predicted
       N       E                     dE             d eps       ncg     rms          rms(c)
DAV:   1    -0.646402918612E+03    0.29330E+00   -0.24695E+01 11016   0.333E+01    0.333E+00
RMM:   2    -0.648081333829E+03   -0.16784E+01   -0.66820E+00 11158   0.842E+00    0.128E+01
RMM:   3    -0.646997648146E+03    0.10837E+01   -0.94753E-01  9922   0.414E+00    0.631E+00
RMM:   4    -0.646803233327E+03    0.19441E+00   -0.26777E-01 10620   0.174E+00    0.304E+00
RMM:   5    -0.646768800749E+03    0.34433E-01   -0.94975E-02 10566   0.921E-01    0.164E+00
RMM:   6    -0.646760342238E+03    0.84585E-02   -0.48817E-02 10927   0.586E-01    0.151E+00
RMM:   7    -0.646750151377E+03    0.10191E-01   -0.14757E-02  9966   0.451E-01    0.869E-01
RMM:   8    -0.646754446904E+03   -0.42955E-02   -0.15987E-02 10654   0.390E-01    0.123E+00
RMM:   9    -0.646748853648E+03    0.55933E-02   -0.91136E-03 10059   0.349E-01    0.788E-01
RMM:  10    -0.646745937785E+03    0.29159E-02   -0.50851E-03  9882   0.241E-01    0.316E-01
RMM:  11    -0.646745670638E+03    0.26715E-03   -0.36575E-03 10529   0.122E-01    0.210E-01
RMM:  12    -0.646745593852E+03    0.76786E-04   -0.12912E-03  9497   0.863E-02    0.184E-01
RMM:  13    -0.646745508247E+03    0.85605E-04   -0.67213E-04  8906   0.594E-02    0.108E-01
RMM:  14    -0.646745464965E+03    0.43282E-04   -0.37973E-04  8044   0.378E-02    0.496E-02
RMM:  15    -0.646745476109E+03   -0.11144E-04   -0.18280E-04  6982   0.284E-02    0.603E-02
RMM:  16    -0.646745462130E+03    0.13979E-04   -0.72563E-05  5627   0.261E-02    0.441E-02
RMM:  17    -0.646745462513E+03   -0.38237E-06   -0.52815E-05  5667   0.252E-02
   9 F= -.64674546E+03 E0= -.64665592E+03  d E =-.330428E+00
 curvature:  -0.55 expect dE=-0.282E+00 dE for cont linesearch -0.606E-05
 trial: gam= 0.45188 g(F)=  0.435E+00 g(S)=  0.817E-01 ort = 0.443E-02 (trialstep = 0.832E+00)
 search vector abs. value=  0.882E+00
 bond charge predicted
       N       E                     dE             d eps       ncg     rms          rms(c)
DAV:   1    -0.643995526711E+03    0.27499E+01   -0.14605E+02  8400   0.775E+01    0.311E+00
RMM:   2    -0.647235808733E+03   -0.32403E+01   -0.32393E+01 12438   0.163E+01    0.564E+00
RMM:   3    -0.647284394114E+03   -0.48585E-01   -0.19077E+00 10792   0.492E+00    0.707E+00
RMM:   4    -0.647126655051E+03    0.15774E+00   -0.46107E-01 11058   0.218E+00    0.315E+00
RMM:   5    -0.647102922159E+03    0.23733E-01   -0.16887E-01 10646   0.118E+00    0.296E+00
RMM:   6    -0.647064987051E+03    0.37935E-01   -0.77025E-02 10876   0.672E-01    0.103E+00
RMM:   7    -0.647070657253E+03   -0.56702E-02   -0.48257E-02 11307   0.450E-01    0.152E+00
RMM:   8    -0.647067778874E+03    0.28784E-02   -0.29358E-02 10679   0.505E-01    0.149E+00
RMM:   9    -0.647056119146E+03    0.11660E-01   -0.25696E-02 11066   0.395E-01    0.579E-01
RMM:  10    -0.647057170189E+03   -0.10510E-02   -0.13356E-02 10811   0.258E-01    0.719E-01
RMM:  11    -0.647054841771E+03    0.23284E-02   -0.54888E-03  9985   0.212E-01    0.289E-01
RMM:  12    -0.647055115654E+03   -0.27388E-03   -0.38708E-03 10126   0.141E-01    0.333E-01
RMM:  13    -0.647054550423E+03    0.56523E-03   -0.16419E-03  8985   0.113E-01    0.143E-01
RMM:  14    -0.647054687622E+03   -0.13720E-03   -0.14333E-03  9461   0.762E-02    0.156E-01
RMM:  15    -0.647054580183E+03    0.10744E-03   -0.52092E-04  8025   0.546E-02    0.829E-02
RMM:  16    -0.647054571361E+03    0.88221E-05   -0.29670E-04  6863   0.318E-02    0.519E-02
RMM:  17    -0.647054580941E+03   -0.95801E-05   -0.15940E-04  6628   0.276E-02    0.478E-02
RMM:  18    -0.647054573720E+03    0.72214E-05   -0.79504E-05  6133   0.221E-02
  10 F= -.64705457E+03 E0= -.64696820E+03  d E =-.309111E+00
 trial-energy change:   -0.309111  1 .order   -0.306143   -0.431131   -0.181155
 step:   1.3712(harm=  1.4346)  dis= 0.06641  next Energy=  -647.114124 (dE=-0.369E+00)
 bond charge predicted
       N       E                     dE             d eps       ncg     rms          rms(c)
DAV:   1    -0.645788059617E+03    0.12665E+01   -0.61082E+01  8400   0.507E+01    0.204E+00
RMM:   2    -0.647207025125E+03   -0.14190E+01   -0.14028E+01 12414   0.106E+01    0.395E+00
RMM:   3    -0.647214790115E+03   -0.77650E-02   -0.83926E-01 10810   0.318E+00    0.464E+00
RMM:   4    -0.647145761654E+03    0.69028E-01   -0.19874E-01 10949   0.144E+00    0.193E+00
RMM:   5    -0.647133904111E+03    0.11858E-01   -0.73639E-02 10721   0.759E-01    0.172E+00
RMM:   6    -0.647121328695E+03    0.12575E-01   -0.30371E-02 10648   0.433E-01    0.731E-01
RMM:   7    -0.647122959717E+03   -0.16310E-02   -0.20558E-02 11070   0.287E-01    0.887E-01
RMM:   8    -0.647122600616E+03    0.35910E-03   -0.13886E-02 10650   0.344E-01    0.100E+00
RMM:   9    -0.647117730761E+03    0.48699E-02   -0.99281E-03 10899   0.267E-01    0.461E-01
RMM:  10    -0.647117803089E+03   -0.72328E-04   -0.53581E-03 10278   0.184E-01    0.441E-01
RMM:  11    -0.647117020177E+03    0.78291E-03   -0.27374E-03  9328   0.140E-01    0.209E-01
RMM:  12    -0.647117064550E+03   -0.44373E-04   -0.16547E-03  9443   0.965E-02    0.211E-01
RMM:  13    -0.647116889103E+03    0.17545E-03   -0.85370E-04  9122   0.742E-02    0.109E-01
RMM:  14    -0.647116884934E+03    0.41693E-05   -0.61086E-04  8897   0.456E-02    0.719E-02
RMM:  15    -0.647116882788E+03    0.21458E-05   -0.22440E-04  6395   0.343E-02    0.691E-02
RMM:  16    -0.647116863334E+03    0.19454E-04   -0.96232E-05  5729   0.268E-02    0.273E-02
RMM:  17    -0.647116871942E+03   -0.86075E-05   -0.77283E-05  5881   0.186E-02
  11 F= -.64711687E+03 E0= -.64703318E+03  d E =-.371409E+00
 curvature:  -1.21 expect dE=-0.336E+00 dE for cont linesearch -0.597E-04
 trial: gam= 0.37473 g(F)=  0.249E+00 g(S)=  0.292E-01 ort = 0.660E-02 (trialstep = 0.940E+00)
 search vector abs. value=  0.407E+00
 bond charge predicted
       N       E                     dE             d eps       ncg     rms          rms(c)
DAV:   1    -0.646065343443E+03    0.10515E+01   -0.84609E+01  9960   0.553E+01    0.506E+00
RMM:   2    -0.649709953477E+03   -0.36446E+01   -0.20560E+01 11426   0.137E+01    0.161E+01
RMM:   3    -0.647775003843E+03    0.19349E+01   -0.21696E+00  9924   0.609E+00    0.881E+00
RMM:   4    -0.647375248060E+03    0.39976E+00   -0.65957E-01 10688   0.262E+00    0.391E+00
RMM:   5    -0.647344219570E+03    0.31028E-01   -0.25002E-01 10688   0.154E+00    0.306E+00
RMM:   6    -0.647286132575E+03    0.58087E-01   -0.11043E-01 10930   0.896E-01    0.151E+00
RMM:   7    -0.647292097952E+03   -0.59654E-02   -0.45129E-02 10368   0.688E-01    0.203E+00
RMM:   8    -0.647283729842E+03    0.83681E-02   -0.43139E-02 10549   0.659E-01    0.147E+00
RMM:   9    -0.647274163906E+03    0.95659E-02   -0.28029E-02 10612   0.472E-01    0.977E-01
RMM:  10    -0.647272538170E+03    0.16257E-02   -0.12545E-02  9899   0.395E-01    0.788E-01
RMM:  11    -0.647270502536E+03    0.20356E-02   -0.88406E-03 10692   0.235E-01    0.530E-01
RMM:  12    -0.647269486526E+03    0.10160E-02   -0.44362E-03  9337   0.157E-01    0.250E-01
RMM:  13    -0.647269462562E+03    0.23964E-04   -0.28860E-03 10036   0.949E-02    0.162E-01
RMM:  14    -0.647269420888E+03    0.41674E-04   -0.15607E-03  9697   0.665E-02    0.944E-02
RMM:  15    -0.647269354087E+03    0.66801E-04   -0.49546E-04  8629   0.368E-02    0.294E-02
RMM:  16    -0.647269379979E+03   -0.25892E-04   -0.23907E-04  6926   0.304E-02    0.560E-02
RMM:  17    -0.647269367966E+03    0.12013E-04   -0.77528E-05  5630   0.259E-02    0.335E-02
RMM:  18    -0.647269368684E+03   -0.71849E-06   -0.56064E-05  5766   0.220E-02
  12 F= -.64726937E+03 E0= -.64718715E+03  d E =-.152497E+00
 trial-energy change:   -0.152497  1 .order   -0.151571   -0.264013   -0.039130
 step:   1.0986(harm=  1.1032)  dis= 0.04710  next Energy=  -647.272682 (dE=-0.156E+00)
 bond charge predicted
       N       E                     dE             d eps       ncg     rms          rms(c)
DAV:   1    -0.647238475873E+03    0.30892E-01   -0.24119E+00 10968   0.937E+00    0.854E-01
RMM:   2    -0.647350270913E+03   -0.11180E+00   -0.60012E-01 11321   0.237E+00    0.315E+00
RMM:   3    -0.647292057169E+03    0.58214E-01   -0.69019E-02  9895   0.110E+00    0.178E+00
RMM:   4    -0.647276094067E+03    0.15963E-01   -0.21044E-02 10164   0.505E-01    0.660E-01
RMM:   5    -0.647275040715E+03    0.10534E-02   -0.81094E-03 10227   0.272E-01    0.486E-01
RMM:   6    -0.647273562469E+03    0.14782E-02   -0.34026E-03 10895   0.146E-01    0.271E-01
RMM:   7    -0.647273580468E+03   -0.18000E-04   -0.12023E-03  9424   0.119E-01    0.312E-01
RMM:   8    -0.647273488842E+03    0.91626E-04   -0.12915E-03  9962   0.118E-01    0.261E-01
RMM:   9    -0.647273154705E+03    0.33414E-03   -0.74578E-04  9439   0.838E-02    0.162E-01
RMM:  10    -0.647273108872E+03    0.45833E-04   -0.33034E-04  8145   0.692E-02    0.130E-01
RMM:  11    -0.647273071424E+03    0.37448E-04   -0.22462E-04  7462   0.434E-02    0.993E-02
RMM:  12    -0.647273025719E+03    0.45705E-04   -0.10988E-04  5843   0.313E-02    0.326E-02
RMM:  13    -0.647273030086E+03   -0.43671E-05   -0.77450E-05  6019   0.218E-02
  13 F= -.64727303E+03 E0= -.64719103E+03  d E =-.156158E+00
 curvature:  -0.80 expect dE=-0.191E+00 dE for cont linesearch -0.749E-05
 trial: gam= 0.83755 g(F)=  0.972E-01 g(S)=  0.142E+00 ort = 0.195E-02 (trialstep = 0.749E+00)
 search vector abs. value=  0.528E+00
 bond charge predicted
       N       E                     dE             d eps       ncg     rms          rms(c)
DAV:   1    -0.646232409604E+03    0.10406E+01   -0.73597E+01 11568   0.547E+01    0.524E+00
RMM:   2    -0.650259397074E+03   -0.40270E+01   -0.20089E+01 10914   0.146E+01    0.184E+01
RMM:   3    -0.647942734203E+03    0.23167E+01   -0.25602E+00  9901   0.660E+00    0.942E+00
RMM:   4    -0.647451572229E+03    0.49116E+00   -0.80265E-01 10664   0.291E+00    0.360E+00
RMM:   5    -0.647434667404E+03    0.16905E-01   -0.27027E-01 10848   0.144E+00    0.306E+00
RMM:   6    -0.647401090832E+03    0.33577E-01   -0.10074E-01 10630   0.967E-01    0.242E+00
RMM:   7    -0.647372894037E+03    0.28197E-01   -0.48863E-02 10158   0.754E-01    0.130E+00
RMM:   8    -0.647385859764E+03   -0.12966E-01   -0.59832E-02 10904   0.647E-01    0.186E+00
RMM:   9    -0.647367662765E+03    0.18197E-01   -0.25812E-02  9941   0.613E-01    0.973E-01
RMM:  10    -0.647363678981E+03    0.39838E-02   -0.15696E-02 10611   0.348E-01    0.492E-01
RMM:  11    -0.647364480658E+03   -0.80168E-03   -0.83284E-03 10621   0.214E-01    0.616E-01
RMM:  12    -0.647362727526E+03    0.17531E-02   -0.25377E-03  8932   0.157E-01    0.161E-01
RMM:  13    -0.647362849862E+03   -0.12234E-03   -0.25489E-03  9953   0.769E-02    0.141E-01
RMM:  14    -0.647362828495E+03    0.21368E-04   -0.93585E-04  9393   0.618E-02    0.110E-01
RMM:  15    -0.647362856660E+03   -0.28165E-04   -0.43711E-04  8379   0.478E-02    0.108E-01
RMM:  16    -0.647362801234E+03    0.55426E-04   -0.21715E-04  7174   0.350E-02    0.317E-02
RMM:  17    -0.647362820452E+03   -0.19218E-04   -0.14858E-04  6780   0.244E-02    0.415E-02
RMM:  18    -0.647362808920E+03    0.11532E-04   -0.58685E-05  5655   0.210E-02    0.993E-03
RMM:  19    -0.647362812575E+03   -0.36545E-05   -0.29210E-05  5322   0.142E-02
  14 F= -.64736281E+03 E0= -.64728274E+03  d E =-.897825E-01
 trial-energy change:   -0.089782  1 .order   -0.087677   -0.180465    0.005110
 step:   0.7296(harm=  0.7283)  dis= 0.03506  next Energy=  -647.362879 (dE=-0.898E-01)
 bond charge predicted
       N       E                     dE             d eps       ncg     rms          rms(c)
DAV:   1    -0.647362120158E+03    0.68876E-03   -0.49060E-02 11976   0.142E+00    0.139E-01
RMM:   2    -0.647364886486E+03   -0.27663E-02   -0.13578E-02 11075   0.366E-01    0.504E-01
RMM:   3    -0.647363342067E+03    0.15444E-02   -0.17289E-03  9080   0.175E-01    0.276E-01
RMM:   4    -0.647362958885E+03    0.38318E-03   -0.52767E-04  8658   0.870E-02    0.117E-01
RMM:   5    -0.647362913250E+03    0.45635E-04   -0.18641E-04  7723   0.479E-02    0.715E-02
RMM:   6    -0.647362901394E+03    0.11856E-04   -0.65296E-05  6051   0.308E-02    0.700E-02
RMM:   7    -0.647362877503E+03    0.23891E-04   -0.31929E-05  5170   0.273E-02    0.342E-02
RMM:   8    -0.647362882545E+03   -0.50426E-05   -0.31218E-05  5247   0.223E-02
  15 F= -.64736288E+03 E0= -.64728275E+03  d E =-.898525E-01
 curvature:  -0.80 expect dE=-0.113E+00 dE for cont linesearch -0.912E-06
 trial: gam= 0.56792 g(F)=  0.107E+00 g(S)=  0.354E-01 ort =-0.778E-03 (trialstep = 0.745E+00)
 search vector abs. value=  0.312E+00
 bond charge predicted
       N       E                     dE             d eps       ncg     rms          rms(c)
DAV:   1    -0.646173408027E+03    0.11895E+01   -0.42487E+01  8064   0.432E+01    0.200E+00
RMM:   2    -0.647527919891E+03   -0.13545E+01   -0.13339E+01 12391   0.979E+00    0.391E+00
RMM:   3    -0.647526924701E+03    0.99519E-03   -0.97226E-01 10997   0.255E+00    0.400E+00
RMM:   4    -0.647478169074E+03    0.48756E-01   -0.15067E-01 10643   0.120E+00    0.215E+00
RMM:   5    -0.647460364678E+03    0.17804E-01   -0.50442E-02 10592   0.649E-01    0.148E+00
RMM:   6    -0.647449278598E+03    0.11086E-01   -0.22094E-02 10357   0.415E-01    0.719E-01
RMM:   7    -0.647449757188E+03   -0.47859E-03   -0.15319E-02 10888   0.279E-01    0.766E-01
RMM:   8    -0.647452098826E+03   -0.23416E-02   -0.13197E-02 10636   0.344E-01    0.113E+00
RMM:   9    -0.647444949918E+03    0.71489E-02   -0.69410E-03 10254   0.268E-01    0.227E-01
RMM:  10    -0.647446418763E+03   -0.14688E-02   -0.55799E-03 10398   0.164E-01    0.532E-01
RMM:  11    -0.647445060688E+03    0.13581E-02   -0.15774E-03  8608   0.142E-01    0.156E-01
RMM:  12    -0.647445094192E+03   -0.33504E-04   -0.18515E-03  9643   0.654E-02    0.111E-01
RMM:  13    -0.647445077872E+03    0.16320E-04   -0.76538E-04  9085   0.569E-02    0.901E-02
RMM:  14    -0.647445059509E+03    0.18363E-04   -0.26601E-04  6952   0.404E-02    0.608E-02
RMM:  15    -0.647445052241E+03    0.72678E-05   -0.15306E-04  6436   0.279E-02    0.405E-02
RMM:  16    -0.647445049054E+03    0.31872E-05   -0.72774E-05  5699   0.214E-02
  16 F= -.64744505E+03 E0= -.64736502E+03  d E =-.821665E-01
 trial-energy change:   -0.082167  1 .order   -0.081262   -0.105834   -0.056689
 step:   1.4523(harm=  1.6046)  dis= 0.06562  next Energy=  -647.472726 (dE=-0.110E+00)
 bond charge predicted
       N       E                     dE             d eps       ncg     rms          rms(c)
DAV:   1    -0.646331099941E+03    0.11140E+01   -0.38227E+01  8064   0.412E+01    0.188E+00
RMM:   2    -0.647525562216E+03   -0.11945E+01   -0.11961E+01 12390   0.926E+00    0.306E+00
RMM:   3    -0.647557363848E+03   -0.31802E-01   -0.86675E-01 11062   0.237E+00    0.405E+00
RMM:   4    -0.647503764701E+03    0.53599E-01   -0.12228E-01 10474   0.115E+00    0.194E+00
RMM:   5    -0.647488366952E+03    0.15398E-01   -0.45843E-02 10861   0.580E-01    0.131E+00
RMM:   6    -0.647479749423E+03    0.86175E-02   -0.18413E-02 10302   0.379E-01    0.655E-01
RMM:   7    -0.647480999216E+03   -0.12498E-02   -0.14463E-02 10972   0.273E-01    0.785E-01
RMM:   8    -0.647481605769E+03   -0.60655E-03   -0.11797E-02 10702   0.316E-01    0.101E+00
RMM:   9    -0.647476190207E+03    0.54156E-02   -0.56470E-03  9955   0.244E-01    0.224E-01
RMM:  10    -0.647476909178E+03   -0.71897E-03   -0.47167E-03 10542   0.131E-01    0.346E-01
RMM:  11    -0.647476343745E+03    0.56543E-03   -0.15228E-03  8752   0.124E-01    0.188E-01
RMM:  12    -0.647476266943E+03    0.76803E-04   -0.11823E-03  9479   0.701E-02    0.109E-01
RMM:  13    -0.647476249712E+03    0.17230E-04   -0.67249E-04  9009   0.459E-02    0.707E-02
RMM:  14    -0.647476251818E+03   -0.21062E-05   -0.23666E-04  6725   0.362E-02    0.679E-02
RMM:  15    -0.647476234272E+03    0.17547E-04   -0.10722E-04  5876   0.275E-02    0.348E-02
RMM:  16    -0.647476232118E+03    0.21540E-05   -0.67934E-05  5706   0.195E-02
  17 F= -.64747623E+03 E0= -.64739808E+03  d E =-.113350E+00
 curvature:  -1.71 expect dE=-0.293E+00 dE for cont linesearch -0.198E-03
 trial: gam= 1.02727 g(F)=  0.149E+00 g(S)=  0.230E-01 ort = 0.602E-02 (trialstep = 0.539E+00)
 search vector abs. value=  0.513E+00
 bond charge predicted
       N       E                     dE             d eps       ncg     rms          rms(c)
DAV:   1    -0.646477364204E+03    0.99887E+00   -0.39863E+01  8400   0.413E+01    0.183E+00
RMM:   2    -0.647705339267E+03   -0.12280E+01   -0.11626E+01 12147   0.855E+00    0.523E+00
RMM:   3    -0.647597360471E+03    0.10798E+00   -0.73067E-01 10773   0.273E+00    0.300E+00
RMM:   4    -0.647585780069E+03    0.11580E-01   -0.19553E-01 10990   0.126E+00    0.201E+00
RMM:   5    -0.647571532807E+03    0.14247E-01   -0.49758E-02  9779   0.753E-01    0.140E+00
RMM:   6    -0.647560426590E+03    0.11106E-01   -0.21064E-02 10651   0.376E-01    0.538E-01
RMM:   7    -0.647562487215E+03   -0.20606E-02   -0.13712E-02 10669   0.282E-01    0.850E-01
RMM:   8    -0.647561747341E+03    0.73987E-03   -0.10263E-02 10581   0.307E-01    0.857E-01
RMM:   9    -0.647557710384E+03    0.40370E-02   -0.64604E-03 10481   0.226E-01    0.267E-01
RMM:  10    -0.647558143320E+03   -0.43294E-03   -0.41447E-03 10267   0.145E-01    0.319E-01
RMM:  11    -0.647557681311E+03    0.46201E-03   -0.18223E-03 10049   0.108E-01    0.154E-01
RMM:  12    -0.647557588308E+03    0.93003E-04   -0.91397E-04  9508   0.665E-02    0.901E-02
RMM:  13    -0.647557620915E+03   -0.32608E-04   -0.46013E-04  8255   0.496E-02    0.104E-01
RMM:  14    -0.647557569824E+03    0.51091E-04   -0.18887E-04  6696   0.372E-02    0.373E-02
RMM:  15    -0.647557573991E+03   -0.41664E-05   -0.12282E-04  6040   0.235E-02    0.349E-02
RMM:  16    -0.647557571207E+03    0.27836E-05   -0.50305E-05  5456   0.207E-02
  18 F= -.64755757E+03 E0= -.64748194E+03  d E =-.813391E-01
 trial-energy change:   -0.081339  1 .order   -0.079109   -0.095801   -0.062416
 step:   1.0945(harm=  1.5467)  dis= 0.07110  next Energy=  -647.592177 (dE=-0.116E+00)
 bond charge predicted
       N       E                     dE             d eps       ncg     rms          rms(c)
DAV:   1    -0.646450369157E+03    0.11072E+01   -0.42177E+01  8400   0.424E+01    0.188E+00
RMM:   2    -0.647766859598E+03   -0.13165E+01   -0.12478E+01 12153   0.891E+00    0.535E+00
RMM:   3    -0.647638249047E+03    0.12861E+00   -0.75509E-01 10809   0.265E+00    0.290E+00
RMM:   4    -0.647632496164E+03    0.57529E-02   -0.19618E-01 11002   0.123E+00    0.226E+00
RMM:   5    -0.647612593364E+03    0.19903E-01   -0.48030E-02  9701   0.778E-01    0.136E+00
RMM:   6    -0.647601718620E+03    0.10875E-01   -0.23264E-02 10799   0.375E-01    0.551E-01
RMM:   7    -0.647604163567E+03   -0.24449E-02   -0.13794E-02 10626   0.291E-01    0.905E-01
RMM:   8    -0.647602527250E+03    0.16363E-02   -0.11661E-02 10817   0.312E-01    0.823E-01
RMM:   9    -0.647599046221E+03    0.34810E-02   -0.63956E-03 10212   0.230E-01    0.336E-01
RMM:  10    -0.647599269526E+03   -0.22330E-03   -0.43630E-03 10226   0.147E-01    0.322E-01
RMM:  11    -0.647598843914E+03    0.42561E-03   -0.20019E-03 10290   0.101E-01    0.162E-01
RMM:  12    -0.647598731913E+03    0.11200E-03   -0.89107E-04  9223   0.762E-02    0.101E-01
RMM:  13    -0.647598745932E+03   -0.14019E-04   -0.49271E-04  8220   0.527E-02    0.949E-02
RMM:  14    -0.647598708257E+03    0.37676E-04   -0.24213E-04  7390   0.376E-02    0.403E-02
RMM:  15    -0.647598714716E+03   -0.64590E-05   -0.13652E-04  6042   0.237E-02    0.450E-02
RMM:  16    -0.647598707260E+03    0.74560E-05   -0.52029E-05  5479   0.220E-02
  19 F= -.64759871E+03 E0= -.64752423E+03  d E =-.122475E+00
 curvature:  -1.78 expect dE=-0.188E+00 dE for cont linesearch -0.232E-02
 ZBRENT: extrapolating
 opt :   1.2540  next Energy=  -647.600766 (dE=-0.125E+00)
 bond charge predicted
       N       E                     dE             d eps       ncg     rms          rms(c)
DAV:   1    -0.647496227521E+03    0.10249E+00   -0.33625E+00  8592   0.123E+01    0.531E-01
RMM:   2    -0.647604728513E+03   -0.10850E+00   -0.10933E+00 12047   0.264E+00    0.867E-01
RMM:   3    -0.647607376723E+03   -0.26482E-02   -0.78253E-02 10958   0.708E-01    0.117E+00
RMM:   4    -0.647602720911E+03    0.46558E-02   -0.11060E-02 10170   0.329E-01    0.490E-01
RMM:   5    -0.647601792711E+03    0.92820E-03   -0.41309E-03  9929   0.176E-01    0.388E-01
RMM:   6    -0.647601032731E+03    0.75998E-03   -0.13385E-03  9162   0.106E-01    0.165E-01
RMM:   7    -0.647601251406E+03   -0.21868E-03   -0.13688E-03  9868   0.922E-02    0.264E-01
RMM:   8    -0.647601061854E+03    0.18955E-03   -0.95974E-04  9556   0.942E-02    0.234E-01
RMM:   9    -0.647600805780E+03    0.25607E-03   -0.54666E-04  9089   0.690E-02    0.902E-02
RMM:  10    -0.647600824997E+03   -0.19217E-04   -0.34045E-04  8379   0.463E-02    0.901E-02
RMM:  11    -0.647600786119E+03    0.38879E-04   -0.14140E-04  6868   0.359E-02    0.455E-02
RMM:  12    -0.647600782853E+03    0.32653E-05   -0.81748E-05  6027   0.251E-02
  20 F= -.64760078E+03 E0= -.64752644E+03  d E =-.124551E+00
 curvature:  -1.58 expect dE=-0.180E+00 dE for cont linesearch -0.191E-04
 trial: gam= 0.30121 g(F)=  0.938E-01 g(S)=  0.198E-01 ort =-0.249E-02 (trialstep = 0.682E+00)
 search vector abs. value=  0.159E+00
 bond charge predicted
       N       E                     dE             d eps       ncg     rms          rms(c)
DAV:   1    -0.647352878599E+03    0.24791E+00   -0.17116E+01 11040   0.268E+01    0.257E+00
RMM:   2    -0.648283123932E+03   -0.93025E+00   -0.52937E+00 11251   0.706E+00    0.832E+00
RMM:   3    -0.647800438077E+03    0.48269E+00   -0.61116E-01  9904   0.304E+00    0.490E+00
RMM:   4    -0.647680385488E+03    0.12005E+00   -0.18008E-01 10482   0.135E+00    0.213E+00
RMM:   5    -0.647666685577E+03    0.13700E-01   -0.62388E-02 10437   0.760E-01    0.132E+00
RMM:   6    -0.647657945776E+03    0.87398E-02   -0.25850E-02 10915   0.446E-01    0.822E-01
RMM:   7    -0.647654966311E+03    0.29795E-02   -0.10285E-02 10139   0.333E-01    0.603E-01
RMM:   8    -0.647656964875E+03   -0.19986E-02   -0.10262E-02 10388   0.335E-01    0.818E-01
RMM:   9    -0.647653233374E+03    0.37315E-02   -0.55106E-03 10209   0.249E-01    0.408E-01
RMM:  10    -0.647653021416E+03    0.21196E-03   -0.31126E-03  9812   0.161E-01    0.319E-01
RMM:  11    -0.647652772261E+03    0.24915E-03   -0.16849E-03  9527   0.101E-01    0.215E-01
RMM:  12    -0.647652547093E+03    0.22517E-03   -0.64718E-04  8135   0.684E-02    0.713E-02
RMM:  13    -0.647652593297E+03   -0.46205E-04   -0.50244E-04  8582   0.387E-02    0.700E-02
RMM:  14    -0.647652577276E+03    0.16021E-04   -0.16490E-04  6803   0.337E-02    0.480E-02
RMM:  15    -0.647652577219E+03    0.57567E-07   -0.79627E-05  5769   0.248E-02
  21 F= -.64765258E+03 E0= -.64757886E+03  d E =-.517944E-01
 trial-energy change:   -0.051794  1 .order   -0.051303   -0.076974   -0.025633
 step:   0.9962(harm=  1.0225)  dis= 0.03719  next Energy=  -647.658529 (dE=-0.577E-01)
 bond charge predicted
       N       E                     dE             d eps       ncg     rms          rms(c)
DAV:   1    -0.647589335355E+03    0.63242E-01   -0.35789E+00 11016   0.124E+01    0.118E+00
RMM:   2    -0.647785132095E+03   -0.19580E+00   -0.11554E+00 11317   0.328E+00    0.370E+00
RMM:   3    -0.647689347628E+03    0.95784E-01   -0.14108E-01  9888   0.143E+00    0.223E+00
RMM:   4    -0.647664659390E+03    0.24688E-01   -0.38207E-02 10327   0.616E-01    0.991E-01
RMM:   5    -0.647661695983E+03    0.29634E-02   -0.12731E-02 10064   0.357E-01    0.622E-01
RMM:   6    -0.647659827900E+03    0.18681E-02   -0.54137E-03 10888   0.208E-01    0.382E-01
RMM:   7    -0.647659189097E+03    0.63880E-03   -0.21675E-03  9853   0.151E-01    0.277E-01
RMM:   8    -0.647659610088E+03   -0.42099E-03   -0.21221E-03 10107   0.157E-01    0.376E-01
RMM:   9    -0.647658818437E+03    0.79165E-03   -0.12036E-03  9841   0.116E-01    0.183E-01
RMM:  10    -0.647658804064E+03    0.14374E-04   -0.64459E-04  8713   0.829E-02    0.161E-01
RMM:  11    -0.647658728489E+03    0.75574E-04   -0.35920E-04  8056   0.493E-02    0.101E-01
RMM:  12    -0.647658681631E+03    0.46859E-04   -0.14957E-04  6214   0.348E-02    0.334E-02
RMM:  13    -0.647658692917E+03   -0.11286E-04   -0.10733E-04  6454   0.220E-02    0.331E-02
RMM:  14    -0.647658690912E+03    0.20045E-05   -0.35598E-05  5365   0.195E-02
  22 F= -.64765869E+03 E0= -.64758520E+03  d E =-.579081E-01
 curvature:  -0.71 expect dE=-0.708E-01 dE for cont linesearch -0.772E-05
 trial: gam= 0.80899 g(F)=  0.506E-01 g(S)=  0.486E-01 ort = 0.131E-02 (trialstep = 0.576E+00)
 search vector abs. value=  0.205E+00
 bond charge predicted
       N       E                     dE             d eps       ncg     rms          rms(c)
DAV:   1    -0.647336191186E+03    0.32250E+00   -0.16309E+01  9024   0.270E+01    0.212E+00
RMM:   2    -0.648042664550E+03   -0.70647E+00   -0.52135E+00 11653   0.632E+00    0.567E+00
RMM:   3    -0.647772770852E+03    0.26989E+00   -0.44135E-01 10061   0.250E+00    0.341E+00
RMM:   4    -0.647716322417E+03    0.56448E-01   -0.13434E-01 10734   0.110E+00    0.169E+00
RMM:   5    -0.647713274112E+03    0.30483E-02   -0.46817E-02 10486   0.622E-01    0.141E+00
RMM:   6    -0.647703140155E+03    0.10134E-01   -0.20152E-02 10916   0.379E-01    0.713E-01
RMM:   7    -0.647702031633E+03    0.11085E-02   -0.80582E-03  9940   0.275E-01    0.633E-01
RMM:   8    -0.647703213720E+03   -0.11821E-02   -0.71421E-03 10491   0.269E-01    0.809E-01
RMM:   9    -0.647700096637E+03    0.31171E-02   -0.44420E-03  9836   0.240E-01    0.411E-01
RMM:  10    -0.647699810704E+03    0.28593E-03   -0.30860E-03 10104   0.161E-01    0.295E-01
RMM:  11    -0.647699438873E+03    0.37183E-03   -0.17853E-03  9909   0.994E-02    0.171E-01
RMM:  12    -0.647699337659E+03    0.10121E-03   -0.77150E-04  8314   0.629E-02    0.735E-02
RMM:  13    -0.647699352144E+03   -0.14484E-04   -0.41565E-04  8211   0.323E-02    0.521E-02
RMM:  14    -0.647699345462E+03    0.66823E-05   -0.14394E-04  6040   0.278E-02    0.431E-02
RMM:  15    -0.647699347718E+03   -0.22567E-05   -0.71872E-05  5718   0.252E-02
  23 F= -.64769935E+03 E0= -.64762511E+03  d E =-.406568E-01
 trial-energy change:   -0.040657  1 .order   -0.040378   -0.057744   -0.023011
 step:   0.9303(harm=  0.9578)  dis= 0.03815  next Energy=  -647.706484 (dE=-0.478E-01)
 bond charge predicted
       N       E                     dE             d eps       ncg     rms          rms(c)
DAV:   1    -0.647585294465E+03    0.11405E+00   -0.63107E+00  9768   0.166E+01    0.131E+00
RMM:   2    -0.647842948022E+03   -0.25765E+00   -0.17899E+00 11518   0.377E+00    0.367E+00
RMM:   3    -0.647734759191E+03    0.10819E+00   -0.18679E-01  9947   0.183E+00    0.213E+00
RMM:   4    -0.647712897136E+03    0.21862E-01   -0.56054E-02 10512   0.770E-01    0.101E+00
RMM:   5    -0.647712238625E+03    0.65851E-03   -0.21004E-02 10329   0.431E-01    0.851E-01
RMM:   6    -0.647708538231E+03    0.37004E-02   -0.77344E-03 10953   0.238E-01    0.433E-01
RMM:   7    -0.647708061790E+03    0.47644E-03   -0.30625E-03  9612   0.173E-01    0.368E-01
RMM:   8    -0.647708405628E+03   -0.34384E-03   -0.26133E-03 10305   0.169E-01    0.463E-01
RMM:   9    -0.647707455033E+03    0.95060E-03   -0.16644E-03  9710   0.138E-01    0.283E-01
RMM:  10    -0.647707295172E+03    0.15986E-03   -0.10496E-03  9289   0.103E-01    0.193E-01
RMM:  11    -0.647707157074E+03    0.13810E-03   -0.68082E-04  9169   0.630E-02    0.115E-01
RMM:  12    -0.647707101851E+03    0.55223E-04   -0.26961E-04  6762   0.425E-02    0.427E-02
RMM:  13    -0.647707109358E+03   -0.75076E-05   -0.16307E-04  6667   0.239E-02    0.339E-02
RMM:  14    -0.647707106707E+03    0.26516E-05   -0.56382E-05  5465   0.215E-02
  24 F= -.64770711E+03 E0= -.64763235E+03  d E =-.484158E-01
 curvature:  -0.98 expect dE=-0.630E-01 dE for cont linesearch -0.443E-04
 trial: gam= 0.62405 g(F)=  0.490E-01 g(S)=  0.156E-01 ort = 0.305E-02 (trialstep = 0.647E+00)
 search vector abs. value=  0.148E+00
 bond charge predicted
       N       E                     dE             d eps       ncg     rms          rms(c)
DAV:   1    -0.647326183729E+03    0.38093E+00   -0.14790E+01  8112   0.255E+01    0.131E+00
RMM:   2    -0.647883206437E+03   -0.55702E+00   -0.45493E+00 12206   0.555E+00    0.481E+00
RMM:   3    -0.647773054666E+03    0.11015E+00   -0.37652E-01 10349   0.183E+00    0.239E+00
RMM:   4    -0.647750399500E+03    0.22655E-01   -0.75021E-02 10726   0.791E-01    0.119E+00
RMM:   5    -0.647747638427E+03    0.27611E-02   -0.27955E-02 10153   0.478E-01    0.883E-01
RMM:   6    -0.647742486797E+03    0.51516E-02   -0.10015E-02 10926   0.238E-01    0.369E-01
RMM:   7    -0.647743148147E+03   -0.66135E-03   -0.57109E-03 10219   0.193E-01    0.503E-01
RMM:   8    -0.647742254848E+03    0.89330E-03   -0.47222E-03 10500   0.224E-01    0.391E-01
RMM:   9    -0.647741294011E+03    0.96084E-03   -0.26538E-03 10559   0.123E-01    0.148E-01
RMM:  10    -0.647741515428E+03   -0.22142E-03   -0.13068E-03  9193   0.930E-02    0.224E-01
RMM:  11    -0.647741266566E+03    0.24886E-03   -0.54021E-04  8585   0.653E-02    0.726E-02
RMM:  12    -0.647741323795E+03   -0.57229E-04   -0.39204E-04  7576   0.413E-02    0.112E-01
RMM:  13    -0.647741283372E+03    0.40423E-04   -0.15310E-04  6234   0.328E-02    0.488E-02
RMM:  14    -0.647741282382E+03    0.99022E-06   -0.94253E-05  5876   0.233E-02
  25 F= -.64774128E+03 E0= -.64766617E+03  d E =-.341757E-01
 trial-energy change:   -0.034176  1 .order   -0.033764   -0.043029   -0.024499
 step:   1.3194(harm=  1.5023)  dis= 0.03859  next Energy=  -647.754477 (dE=-0.474E-01)
 bond charge predicted
       N       E                     dE             d eps       ncg     rms          rms(c)
DAV:   1    -0.647324068837E+03    0.41721E+00   -0.16170E+01  8184   0.263E+01    0.136E+00
RMM:   2    -0.647909961446E+03   -0.58589E+00   -0.47733E+00 12177   0.565E+00    0.497E+00
RMM:   3    -0.647789114448E+03    0.12085E+00   -0.37432E-01 10315   0.196E+00    0.245E+00
RMM:   4    -0.647765728275E+03    0.23386E-01   -0.87977E-02 10757   0.854E-01    0.122E+00
RMM:   5    -0.647763075425E+03    0.26529E-02   -0.31062E-02 10159   0.508E-01    0.920E-01
RMM:   6    -0.647757574291E+03    0.55011E-02   -0.11090E-02 10902   0.253E-01    0.395E-01
RMM:   7    -0.647758163804E+03   -0.58951E-03   -0.62238E-03 10318   0.198E-01    0.508E-01
RMM:   8    -0.647757595157E+03    0.56865E-03   -0.53233E-03 10663   0.228E-01    0.469E-01
RMM:   9    -0.647756339608E+03    0.12555E-02   -0.26676E-03 10363   0.144E-01    0.214E-01
RMM:  10    -0.647756457726E+03   -0.11812E-03   -0.15220E-03  9327   0.999E-02    0.231E-01
RMM:  11    -0.647756301484E+03    0.15624E-03   -0.74638E-04  9172   0.649E-02    0.140E-01
RMM:  12    -0.647756249113E+03    0.52370E-04   -0.41424E-04  7339   0.514E-02    0.780E-02
RMM:  13    -0.647756243448E+03    0.56649E-05   -0.22217E-04  7366   0.296E-02    0.430E-02
RMM:  14    -0.647756247670E+03   -0.42218E-05   -0.94651E-05  5677   0.242E-02
  26 F= -.64775625E+03 E0= -.64768081E+03  d E =-.491410E-01
 curvature:  -1.60 expect dE=-0.660E-01 dE for cont linesearch -0.299E-03
 trial: gam= 0.55435 g(F)=  0.377E-01 g(S)=  0.364E-02 ort = 0.527E-02 (trialstep = 0.781E+00)
 search vector abs. value=  0.927E-01
 bond charge predicted
       N       E                     dE             d eps       ncg     rms          rms(c)
DAV:   1    -0.647384141110E+03    0.37210E+00   -0.13806E+01  8064   0.240E+01    0.110E+00
RMM:   2    -0.647822730303E+03   -0.43859E+00   -0.40671E+00 12329   0.514E+00    0.285E+00
RMM:   3    -0.647806313030E+03    0.16417E-01   -0.35075E-01 10575   0.152E+00    0.208E+00
RMM:   4    -0.647791394809E+03    0.14918E-01   -0.53761E-02 10684   0.663E-01    0.103E+00
RMM:   5    -0.647788669909E+03    0.27249E-02   -0.17543E-02 10224   0.369E-01    0.822E-01
RMM:   6    -0.647785054952E+03    0.36150E-02   -0.78788E-03 10398   0.220E-01    0.349E-01
RMM:   7    -0.647785151878E+03   -0.96926E-04   -0.44620E-03 10359   0.131E-01    0.366E-01
RMM:   8    -0.647785411403E+03   -0.25952E-03   -0.34553E-03 10285   0.185E-01    0.499E-01
RMM:   9    -0.647784103674E+03    0.13077E-02   -0.22107E-03 10071   0.138E-01    0.218E-01
RMM:  10    -0.647784152806E+03   -0.49132E-04   -0.10481E-03  9021   0.951E-02    0.224E-01
RMM:  11    -0.647783983959E+03    0.16885E-03   -0.73824E-04  9181   0.609E-02    0.101E-01
RMM:  12    -0.647783956042E+03    0.27917E-04   -0.33859E-04  7354   0.472E-02    0.685E-02
RMM:  13    -0.647783957866E+03   -0.18238E-05   -0.19415E-04  7092   0.324E-02    0.532E-02
RMM:  14    -0.647783944177E+03    0.13689E-04   -0.90423E-05  6068   0.233E-02    0.209E-02
RMM:  15    -0.647783949273E+03   -0.50966E-05   -0.43404E-05  5455   0.190E-02
  27 F= -.64778395E+03 E0= -.64770799E+03  d E =-.277016E-01
 trial-energy change:   -0.027702  1 .order   -0.027105   -0.034566   -0.019645
 step:   1.4879(harm=  1.8104)  dis= 0.04374  next Energy=  -647.793270 (dE=-0.370E-01)
 bond charge predicted
       N       E                     dE             d eps       ncg     rms          rms(c)
DAV:   1    -0.647467526604E+03    0.31642E+00   -0.11308E+01  8064   0.219E+01    0.100E+00
RMM:   2    -0.647829792675E+03   -0.36227E+00   -0.33404E+00 12315   0.463E+00    0.263E+00
RMM:   3    -0.647813978736E+03    0.15814E-01   -0.28871E-01 10540   0.139E+00    0.188E+00
RMM:   4    -0.647801953752E+03    0.12025E-01   -0.45315E-02 10633   0.603E-01    0.954E-01
RMM:   5    -0.647799623028E+03    0.23307E-02   -0.14523E-02 10217   0.339E-01    0.748E-01
RMM:   6    -0.647796600139E+03    0.30229E-02   -0.65664E-03 10398   0.196E-01    0.321E-01
RMM:   7    -0.647796642369E+03   -0.42230E-04   -0.35916E-03 10254   0.120E-01    0.328E-01
RMM:   8    -0.647796773995E+03   -0.13163E-03   -0.29793E-03 10236   0.167E-01    0.422E-01
RMM:   9    -0.647795750467E+03    0.10235E-02   -0.18336E-03 10018   0.124E-01    0.175E-01
RMM:  10    -0.647795874379E+03   -0.12391E-03   -0.82592E-04  8809   0.867E-02    0.227E-01
RMM:  11    -0.647795684986E+03    0.18939E-03   -0.56335E-04  8935   0.565E-02    0.910E-02
RMM:  12    -0.647795669881E+03    0.15105E-04   -0.27245E-04  6975   0.434E-02    0.673E-02
RMM:  13    -0.647795663904E+03    0.59770E-05   -0.15585E-04  6681   0.293E-02    0.425E-02
RMM:  14    -0.647795657343E+03    0.65611E-05   -0.74608E-05  5875   0.215E-02
  28 F= -.64779566E+03 E0= -.64771930E+03  d E =-.394097E-01
 curvature:  -1.71 expect dE=-0.523E-01 dE for cont linesearch -0.824E-03
 ZBRENT: extrapolating
 opt :   1.7437  next Energy=  -647.796512 (dE=-0.403E-01)
 bond charge predicted
       N       E                     dE             d eps       ncg     rms          rms(c)
DAV:   1    -0.647759265178E+03    0.36399E-01   -0.15447E+00  8592   0.799E+00    0.357E-01
RMM:   2    -0.647802619967E+03   -0.43355E-01   -0.38002E-01 12082   0.158E+00    0.113E+00
RMM:   3    -0.647798385882E+03    0.42341E-02   -0.37532E-02 10218   0.658E-01    0.641E-01
RMM:   4    -0.647797262731E+03    0.11232E-02   -0.74261E-03 10124   0.268E-01    0.341E-01
RMM:   5    -0.647797092070E+03    0.17066E-03   -0.29381E-03  9326   0.151E-01    0.267E-01
RMM:   6    -0.647796698367E+03    0.39370E-03   -0.97252E-04  9604   0.783E-02    0.115E-01
RMM:   7    -0.647796705248E+03   -0.68810E-05   -0.50495E-04  8850   0.490E-02    0.119E-01
RMM:   8    -0.647796761487E+03   -0.56240E-04   -0.39605E-04  8863   0.627E-02    0.175E-01
RMM:   9    -0.647796597110E+03    0.16438E-03   -0.26632E-04  8572   0.526E-02    0.758E-02
RMM:  10    -0.647796592150E+03    0.49597E-05   -0.11405E-04  6314   0.330E-02    0.639E-02
RMM:  11    -0.647796582325E+03    0.98247E-05   -0.77508E-05  5688   0.266E-02
  29 F= -.64779658E+03 E0= -.64772012E+03  d E =-.403347E-01
 curvature:  -1.77 expect dE=-0.739E-01 dE for cont linesearch -0.225E-05
 trial: gam= 0.99555 g(F)=  0.285E-01 g(S)=  0.132E-01 ort = 0.343E-03 (trialstep = 0.673E+00)
 search vector abs. value=  0.134E+00
 bond charge predicted
       N       E                     dE             d eps       ncg     rms          rms(c)
DAV:   1    -0.647438841429E+03    0.35775E+00   -0.14393E+01  8064   0.246E+01    0.171E+00
RMM:   2    -0.648012613088E+03   -0.57377E+00   -0.46141E+00 11896   0.585E+00    0.447E+00
RMM:   3    -0.647871237215E+03    0.14138E+00   -0.45021E-01 10160   0.208E+00    0.315E+00
RMM:   4    -0.647824509001E+03    0.46728E-01   -0.96850E-02 10783   0.893E-01    0.128E+00
RMM:   5    -0.647824120675E+03    0.38833E-03   -0.33862E-02 10296   0.547E-01    0.121E+00
RMM:   6    -0.647815496569E+03    0.86241E-02   -0.13128E-02 10872   0.312E-01    0.534E-01
RMM:   7    -0.647815608499E+03   -0.11193E-03   -0.66755E-03  9994   0.237E-01    0.584E-01
RMM:   8    -0.647815772797E+03   -0.16430E-03   -0.75206E-03 10495   0.284E-01    0.647E-01
RMM:   9    -0.647813704514E+03    0.20683E-02   -0.40963E-03 10214   0.208E-01    0.394E-01
RMM:  10    -0.647813270551E+03    0.43396E-03   -0.22600E-03  9485   0.130E-01    0.220E-01
RMM:  11    -0.647813146504E+03    0.12405E-03   -0.13847E-03  9745   0.747E-02    0.139E-01
RMM:  12    -0.647813085062E+03    0.61443E-04   -0.56924E-04  7713   0.515E-02    0.697E-02
RMM:  13    -0.647813104871E+03   -0.19809E-04   -0.29291E-04  7977   0.309E-02    0.574E-02
RMM:  14    -0.647813092636E+03    0.12235E-04   -0.13029E-04  6172   0.270E-02    0.325E-02
RMM:  15    -0.647813103609E+03   -0.10973E-04   -0.50922E-05  5410   0.231E-02    0.506E-02
RMM:  16    -0.647813093151E+03    0.10458E-04   -0.26684E-05  5252   0.209E-02    0.144E-02
RMM:  17    -0.647813094433E+03   -0.12817E-05   -0.20439E-05  5267   0.117E-02
  30 F= -.64781309E+03 E0= -.64773700E+03  d E =-.165121E-01
 trial-energy change:   -0.016512  1 .order   -0.016252   -0.028248   -0.004255
 step:   0.7837(harm=  0.7921)  dis= 0.02768  next Energy=  -647.813446 (dE=-0.169E-01)
 bond charge predicted
       N       E                     dE             d eps       ncg     rms          rms(c)
DAV:   1    -0.647803683562E+03    0.94096E-02   -0.39779E-01  8832   0.409E+00    0.281E-01
RMM:   2    -0.647818677788E+03   -0.14994E-01   -0.12087E-01 11851   0.939E-01    0.737E-01
RMM:   3    -0.647815159860E+03    0.35179E-02   -0.11816E-02  9928   0.356E-01    0.549E-01
RMM:   4    -0.647813791655E+03    0.13682E-02   -0.26239E-03  9693   0.162E-01    0.208E-01
RMM:   5    -0.647813787294E+03    0.43609E-05   -0.10587E-03  9167   0.978E-02    0.192E-01
RMM:   6    -0.647813563957E+03    0.22334E-03   -0.36922E-04  8933   0.539E-02    0.865E-02
RMM:   7    -0.647813564960E+03   -0.10036E-05   -0.18915E-04  7210   0.435E-02    0.915E-02
RMM:   8    -0.647813567613E+03   -0.26525E-05   -0.20248E-04  8423   0.495E-02    0.969E-02
RMM:   9    -0.647813516110E+03    0.51503E-04   -0.11277E-04  7137   0.392E-02    0.544E-02
RMM:  10    -0.647813514757E+03    0.13524E-05   -0.56293E-05  5397   0.258E-02
  31 F= -.64781351E+03 E0= -.64773753E+03  d E =-.169324E-01
 curvature:  -1.26 expect dE=-0.272E-01 dE for cont linesearch -0.438E-05
 trial: gam= 0.34941 g(F)=  0.149E-01 g(S)=  0.669E-02 ort = 0.684E-03 (trialstep = 0.695E+00)
 search vector abs. value=  0.384E-01
 bond charge predicted
       N       E                     dE             d eps       ncg     rms          rms(c)
DAV:   1    -0.647766453651E+03    0.47062E-01   -0.39586E+00  9192   0.116E+01    0.117E+00
RMM:   2    -0.647958105673E+03   -0.19165E+00   -0.10122E+00 11275   0.320E+00    0.378E+00
RMM:   3    -0.647846676948E+03    0.11143E+00   -0.12326E-01  9912   0.139E+00    0.185E+00
RMM:   4    -0.647827220978E+03    0.19456E-01   -0.39053E-02 10572   0.564E-01    0.828E-01
RMM:   5    -0.647825740115E+03    0.14809E-02   -0.11838E-02 10188   0.334E-01    0.654E-01
RMM:   6    -0.647824052780E+03    0.16873E-02   -0.58116E-03 10816   0.220E-01    0.474E-01
RMM:   7    -0.647822962246E+03    0.10905E-02   -0.23753E-03  9744   0.165E-01    0.274E-01
RMM:   8    -0.647823323353E+03   -0.36111E-03   -0.25382E-03 10270   0.151E-01    0.345E-01
RMM:   9    -0.647822532716E+03    0.79064E-03   -0.14336E-03 10275   0.112E-01    0.135E-01
RMM:  10    -0.647822643616E+03   -0.11090E-03   -0.66231E-04  8615   0.833E-02    0.191E-01
RMM:  11    -0.647822484870E+03    0.15875E-03   -0.32448E-04  7654   0.560E-02    0.953E-02
RMM:  12    -0.647822463667E+03    0.21203E-04   -0.22621E-04  6554   0.329E-02    0.432E-02
RMM:  13    -0.647822464872E+03   -0.12054E-05   -0.10726E-04  6282   0.215E-02    0.278E-02
RMM:  14    -0.647822462749E+03    0.21236E-05   -0.37513E-05  5435   0.191E-02
  32 F= -.64782246E+03 E0= -.64774651E+03  d E =-.894799E-02
 trial-energy change:   -0.008948  1 .order   -0.008975   -0.015158   -0.002793
 step:   0.8519(harm=  0.8519)  dis= 0.00943  next Energy=  -647.822806 (dE=-0.929E-02)
 bond charge predicted
       N       E                     dE             d eps       ncg     rms          rms(c)
DAV:   1    -0.647819984938E+03    0.24799E-02   -0.20255E-01  9768   0.263E+00    0.267E-01
RMM:   2    -0.647830004941E+03   -0.10020E-01   -0.51615E-02 11229   0.728E-01    0.885E-01
RMM:   3    -0.647824099519E+03    0.59054E-02   -0.65542E-03  9570   0.325E-01    0.430E-01
RMM:   4    -0.647823053704E+03    0.10458E-02   -0.20739E-03  9765   0.140E-01    0.187E-01
RMM:   5    -0.647822981873E+03    0.71831E-04   -0.65563E-04  9025   0.815E-02    0.149E-01
RMM:   6    -0.647822897980E+03    0.83893E-04   -0.31278E-04  8819   0.513E-02    0.110E-01
RMM:   7    -0.647822837533E+03    0.60447E-04   -0.11832E-04  6830   0.428E-02    0.615E-02
RMM:   8    -0.647822857708E+03   -0.20175E-04   -0.13920E-04  7295   0.382E-02    0.786E-02
RMM:   9    -0.647822815947E+03    0.41761E-04   -0.76808E-05  6636   0.311E-02    0.300E-02
RMM:  10    -0.647822820517E+03   -0.45706E-05   -0.36676E-05  5253   0.233E-02
  33 F= -.64782282E+03 E0= -.64774690E+03  d E =-.930576E-02
 curvature:  -0.75 expect dE=-0.844E-02 dE for cont linesearch -0.990E-06
 trial: gam= 0.50369 g(F)=  0.775E-02 g(S)=  0.349E-02 ort = 0.225E-03 (trialstep = 0.726E+00)
 search vector abs. value=  0.212E-01
 bond charge predicted
       N       E                     dE             d eps       ncg     rms          rms(c)
DAV:   1    -0.647785378600E+03    0.37437E-01   -0.23160E+00  9120   0.917E+00    0.716E-01
RMM:   2    -0.647869390208E+03   -0.84012E-01   -0.60919E-01 11645   0.233E+00    0.199E+00
RMM:   3    -0.647836765026E+03    0.32625E-01   -0.59116E-02 10053   0.864E-01    0.114E+00
RMM:   4    -0.647829555827E+03    0.72092E-02   -0.16441E-02 10541   0.367E-01    0.419E-01
RMM:   5    -0.647830087166E+03   -0.53134E-03   -0.51925E-03 10081   0.216E-01    0.552E-01
RMM:   6    -0.647828565405E+03    0.15218E-02   -0.19193E-03  9778   0.151E-01    0.252E-01
RMM:   7    -0.647828459002E+03    0.10640E-03   -0.13242E-03  9601   0.102E-01    0.217E-01
RMM:   8    -0.647828473188E+03   -0.14186E-04   -0.96430E-04  9652   0.109E-01    0.215E-01
RMM:   9    -0.647828215727E+03    0.25746E-03   -0.66804E-04  9496   0.776E-02    0.107E-01
RMM:  10    -0.647828254000E+03   -0.38273E-04   -0.30766E-04  7971   0.581E-02    0.130E-01
RMM:  11    -0.647828181641E+03    0.72360E-04   -0.14313E-04  6657   0.364E-02    0.630E-02
RMM:  12    -0.647828169739E+03    0.11901E-04   -0.84955E-05  5618   0.254E-02    0.282E-02
RMM:  13    -0.647828174104E+03   -0.43645E-05   -0.50661E-05  5709   0.189E-02
  34 F= -.64782817E+03 E0= -.64775269E+03  d E =-.535359E-02
 trial-energy change:   -0.005354  1 .order   -0.005377   -0.008247   -0.002507
 step:   1.0436(harm=  1.0436)  dis= 0.00781  next Energy=  -647.828746 (dE=-0.593E-02)
 bond charge predicted
       N       E                     dE             d eps       ncg     rms          rms(c)
DAV:   1    -0.647820614856E+03    0.75549E-02   -0.44291E-01  9432   0.401E+00    0.317E-01
RMM:   2    -0.647836796232E+03   -0.16181E-01   -0.11634E-01 11640   0.102E+00    0.876E-01
RMM:   3    -0.647830424039E+03    0.63722E-02   -0.11363E-02  9847   0.380E-01    0.500E-01
RMM:   4    -0.647829024909E+03    0.13991E-02   -0.32097E-03 10063   0.165E-01    0.181E-01
RMM:   5    -0.647829129611E+03   -0.10470E-03   -0.10256E-03  9097   0.982E-02    0.240E-01
RMM:   6    -0.647828847124E+03    0.28249E-03   -0.38034E-04  8473   0.678E-02    0.112E-01
RMM:   7    -0.647828825150E+03    0.21974E-04   -0.25271E-04  7765   0.477E-02    0.941E-02
RMM:   8    -0.647828831755E+03   -0.66054E-05   -0.18838E-04  8073   0.509E-02    0.943E-02
RMM:   9    -0.647828782041E+03    0.49714E-04   -0.12993E-04  7486   0.375E-02    0.442E-02
RMM:  10    -0.647828792836E+03   -0.10795E-04   -0.60974E-05  5526   0.266E-02    0.586E-02
RMM:  11    -0.647828777655E+03    0.15180E-04   -0.27042E-05  5127   0.248E-02    0.265E-02
RMM:  12    -0.647828775791E+03    0.18648E-05   -0.13058E-05  4997   0.132E-02
  35 F= -.64782878E+03 E0= -.64775347E+03  d E =-.595527E-02
 curvature:  -0.98 expect dE=-0.653E-02 dE for cont linesearch -0.124E-05
 trial: gam= 0.57700 g(F)=  0.390E-02 g(S)=  0.279E-02 ort = 0.165E-03 (trialstep = 0.790E+00)
 search vector abs. value=  0.139E-01
 bond charge predicted
       N       E                     dE             d eps       ncg     rms          rms(c)
DAV:   1    -0.647804101069E+03    0.24677E-01   -0.19749E+00 10464   0.876E+00    0.828E-01
RMM:   2    -0.647892596607E+03   -0.88496E-01   -0.53097E-01 11366   0.215E+00    0.242E+00
RMM:   3    -0.647845204751E+03    0.47392E-01   -0.52814E-02  9918   0.980E-01    0.144E+00
RMM:   4    -0.647834067776E+03    0.11137E-01   -0.17875E-02 10191   0.413E-01    0.587E-01
RMM:   5    -0.647833496743E+03    0.57103E-03   -0.57782E-03  9871   0.255E-01    0.485E-01
RMM:   6    -0.647832352502E+03    0.11442E-02   -0.26077E-03 10574   0.153E-01    0.292E-01
RMM:   7    -0.647832020055E+03    0.33245E-03   -0.10773E-03  9111   0.119E-01    0.210E-01
RMM:   8    -0.647832099260E+03   -0.79205E-04   -0.10250E-03  9762   0.107E-01    0.230E-01
RMM:   9    -0.647831791127E+03    0.30813E-03   -0.61947E-04  9352   0.798E-02    0.122E-01
RMM:  10    -0.647831803623E+03   -0.12497E-04   -0.27262E-04  7754   0.610E-02    0.124E-01
RMM:  11    -0.647831746161E+03    0.57462E-04   -0.13804E-04  6493   0.372E-02    0.701E-02
RMM:  12    -0.647831724648E+03    0.21513E-04   -0.81122E-05  5574   0.270E-02    0.224E-02
RMM:  13    -0.647831727083E+03   -0.24345E-05   -0.47348E-05  5658   0.183E-02
  36 F= -.64783173E+03 E0= -.64775647E+03  d E =-.295129E-02
 trial-energy change:   -0.002951  1 .order   -0.002909   -0.005360   -0.000458
 step:   0.8596(harm=  0.8635)  dis= 0.00484  next Energy=  -647.831747 (dE=-0.297E-02)
 bond charge predicted
       N       E                     dE             d eps       ncg     rms          rms(c)
DAV:   1    -0.647831541656E+03    0.18299E-03   -0.15488E-02 10704   0.775E-01    0.766E-02
RMM:   2    -0.647832313377E+03   -0.77172E-03   -0.41475E-03 11085   0.195E-01    0.249E-01
RMM:   3    -0.647831870852E+03    0.44252E-03   -0.46124E-04  8032   0.942E-02    0.137E-01
RMM:   4    -0.647831769802E+03    0.10105E-03   -0.15847E-04  7920   0.481E-02    0.553E-02
RMM:   5    -0.647831763244E+03    0.65583E-05   -0.48473E-05  5682   0.265E-02
  37 F= -.64783176E+03 E0= -.64775648E+03  d E =-.298745E-02
 curvature:  -0.88 expect dE=-0.218E-02 dE for cont linesearch -0.247E-08
 trial: gam= 0.34086 g(F)=  0.181E-02 g(S)=  0.649E-03 ort = 0.624E-05 (trialstep = 0.804E+00)
 search vector abs. value=  0.409E-02
 bond charge predicted
       N       E                     dE             d eps       ncg     rms          rms(c)
DAV:   1    -0.647822069349E+03    0.97005E-02   -0.60747E-01  9576   0.500E+00    0.359E-01
RMM:   2    -0.647845444586E+03   -0.23375E-01   -0.16044E-01 11592   0.109E+00    0.111E+00
RMM:   3    -0.647835078892E+03    0.10366E-01   -0.13686E-02  9880   0.504E-01    0.542E-01
RMM:   4    -0.647833567061E+03    0.15118E-02   -0.45555E-03 10010   0.203E-01    0.249E-01
RMM:   5    -0.647833543298E+03    0.23764E-04   -0.13788E-03  9228   0.121E-01    0.245E-01
RMM:   6    -0.647833263762E+03    0.27954E-03   -0.55673E-04  9248   0.740E-02    0.137E-01
RMM:   7    -0.647833188841E+03    0.74920E-04   -0.25968E-04  7868   0.548E-02    0.908E-02
RMM:   8    -0.647833228770E+03   -0.39929E-04   -0.26292E-04  8542   0.537E-02    0.116E-01
RMM:   9    -0.647833143951E+03    0.84819E-04   -0.16316E-04  8070   0.439E-02    0.499E-02
RMM:  10    -0.647833152572E+03   -0.86210E-05   -0.73981E-05  5883   0.304E-02
  38 F= -.64783315E+03 E0= -.64775802E+03  d E =-.138933E-02
 trial-energy change:   -0.001389  1 .order   -0.001288   -0.001982   -0.000595
 step:   1.0248(harm=  1.1482)  dis= 0.00252  next Energy=  -647.833236 (dE=-0.147E-02)
 bond charge predicted
       N       E                     dE             d eps       ncg     rms          rms(c)
DAV:   1    -0.647832427516E+03    0.71644E-03   -0.46076E-02 10224   0.138E+00    0.104E-01
RMM:   2    -0.647834500642E+03   -0.20731E-02   -0.12082E-02 11450   0.304E-01    0.398E-01
RMM:   3    -0.647833458529E+03    0.10421E-02   -0.11951E-03  8512   0.152E-01    0.185E-01
RMM:   4    -0.647833292922E+03    0.16561E-03   -0.40051E-04  8806   0.733E-02    0.862E-02
RMM:   5    -0.647833276985E+03    0.15938E-04   -0.14293E-04  7077   0.382E-02    0.597E-02
RMM:   6    -0.647833263597E+03    0.13388E-04   -0.46016E-05  5416   0.269E-02    0.424E-02
RMM:   7    -0.647833255621E+03    0.79755E-05   -0.21289E-05  5041   0.221E-02
  39 F= -.64783326E+03 E0= -.64775818E+03  d E =-.149238E-02
 curvature:  -0.83 expect dE=-0.652E-03 dE for cont linesearch -0.287E-04
 ZBRENT: increasing intervall
 opt :   1.4669  next Energy=  -647.833261 (dE=-0.150E-02)
 bond charge predicted
       N       E                     dE             d eps       ncg     rms          rms(c)
DAV:   1    -0.647829646068E+03    0.36175E-02   -0.18140E-01  8904   0.277E+00    0.202E-01
RMM:   2    -0.647836800833E+03   -0.71548E-02   -0.49202E-02 11750   0.600E-01    0.604E-01
RMM:   3    -0.647833750409E+03    0.30504E-02   -0.42258E-03  9595   0.274E-01    0.308E-01
RMM:   4    -0.647833258235E+03    0.49217E-03   -0.14357E-03  9605   0.122E-01    0.127E-01
RMM:   5    -0.647833275148E+03   -0.16913E-04   -0.52687E-04  9024   0.657E-02    0.142E-01
RMM:   6    -0.647833188576E+03    0.86573E-04   -0.16223E-04  7246   0.460E-02    0.857E-02
RMM:   7    -0.647833156403E+03    0.32173E-04   -0.92716E-05  6404   0.316E-02    0.487E-02
RMM:   8    -0.647833179862E+03   -0.23458E-04   -0.87551E-05  6417   0.362E-02    0.756E-02
RMM:   9    -0.647833144477E+03    0.35385E-04   -0.63887E-05  6638   0.285E-02    0.232E-02
RMM:  10    -0.647833149537E+03   -0.50609E-05   -0.27861E-05  5162   0.214E-02
  40 F= -.64783315E+03 E0= -.64775814E+03  d E =-.138629E-02
 curvature:  -0.16 expect dE=-0.401E-03 dE for cont linesearch -0.227E-04
 ZBRENT: bracketing found
 ZBRENT: interpolating
 opt :   1.1695  next Energy=  -647.833283 (dE=-0.152E-02)
 bond charge predicted
       N       E                     dE             d eps       ncg     rms          rms(c)
DAV:   1    -0.647831721826E+03    0.14227E-02   -0.82686E-02  9144   0.185E+00    0.135E-01
RMM:   2    -0.647834860181E+03   -0.31384E-02   -0.22242E-02 11735   0.404E-01    0.394E-01
RMM:   3    -0.647833553594E+03    0.13066E-02   -0.18297E-03  9180   0.182E-01    0.203E-01
RMM:   4    -0.647833332922E+03    0.22067E-03   -0.61893E-04  9385   0.832E-02    0.833E-02
RMM:   5    -0.647833341218E+03   -0.82962E-05   -0.17976E-04  7262   0.454E-02    0.983E-02
RMM:   6    -0.647833292260E+03    0.48958E-04   -0.61556E-05  5795   0.317E-02    0.514E-02
RMM:   7    -0.647833281969E+03    0.10291E-04   -0.32188E-05  5223   0.252E-02    0.359E-02
RMM:   8    -0.647833286241E+03   -0.42718E-05   -0.41427E-05  5745   0.264E-02
  41 F= -.64783329E+03 E0= -.64775825E+03  d E =-.152300E-02
 curvature:  -0.19 expect dE=-0.256E-03 dE for cont linesearch -0.585E-06
 trial: gam= 0.63740 g(F)=  0.899E-03 g(S)=  0.479E-03 ort =-0.113E-03 (trialstep = 0.877E+00)
 search vector abs. value=  0.289E-02
 bond charge predicted
       N       E                     dE             d eps       ncg     rms          rms(c)
DAV:   1    -0.647823590875E+03    0.96911E-02   -0.50961E-01  8568   0.470E+00    0.315E-01
RMM:   2    -0.647840840469E+03   -0.17250E-01   -0.13438E-01 11861   0.100E+00    0.821E-01
RMM:   3    -0.647835554622E+03    0.52858E-02   -0.11825E-02 10024   0.458E-01    0.531E-01
RMM:   4    -0.647834243587E+03    0.13110E-02   -0.35398E-03  9801   0.193E-01    0.221E-01
RMM:   5    -0.647834328810E+03   -0.85223E-04   -0.13913E-03  9034   0.119E-01    0.250E-01
RMM:   6    -0.647833991034E+03    0.33778E-03   -0.40667E-04  8630   0.711E-02    0.107E-01
RMM:   7    -0.647833971965E+03    0.19068E-04   -0.27140E-04  7890   0.500E-02    0.959E-02
RMM:   8    -0.647833976662E+03   -0.46964E-05   -0.22005E-04  8384   0.548E-02    0.101E-01
RMM:   9    -0.647833912668E+03    0.63994E-04   -0.14066E-04  7652   0.401E-02    0.440E-02
RMM:  10    -0.647833916521E+03   -0.38530E-05   -0.58781E-05  5513   0.269E-02
  42 F= -.64783392E+03 E0= -.64775885E+03  d E =-.630280E-03
 trial-energy change:   -0.000630  1 .order   -0.000599   -0.001145   -0.000054
 step:   0.9201(harm=  0.9201)  dis= 0.00231  next Energy=  -647.833887 (dE=-0.601E-03)
 bond charge predicted
       N       E                     dE             d eps       ncg     rms          rms(c)
DAV:   1    -0.647833894597E+03    0.18070E-04   -0.13763E-03 12288   0.241E-01    0.303E-02
RMM:   2    -0.647834145223E+03   -0.25063E-03   -0.42319E-04  8725   0.670E-02    0.212E-01
RMM:   3    -0.647833918629E+03    0.22659E-03   -0.10899E-04  6431   0.524E-02    0.360E-02
RMM:   4    -0.647833909879E+03    0.87498E-05   -0.20323E-05  5087   0.196E-02
  43 F= -.64783391E+03 E0= -.64775887E+03  d E =-.623638E-03
 curvature:  -1.02 expect dE=-0.531E-03 dE for cont linesearch -0.137E-05
 trial: gam= 0.25614 g(F)=  0.455E-03 g(S)=  0.660E-04 ort =-0.622E-04 (trialstep = 0.886E+00)
 search vector abs. value=  0.679E-03
 bond charge predicted
       N       E                     dE             d eps       ncg     rms          rms(c)
DAV:   1    -0.647832999921E+03    0.91871E-03   -0.98914E-02  8880   0.167E+00    0.133E-01
RMM:   2    -0.647835759556E+03   -0.27596E-02   -0.18995E-02 11502   0.417E-01    0.388E-01
RMM:   3    -0.647834549797E+03    0.12098E-02   -0.17147E-03  9704   0.176E-01    0.231E-01
RMM:   4    -0.647834269430E+03    0.28037E-03   -0.64116E-04  9348   0.842E-02    0.898E-02
RMM:   5    -0.647834288509E+03   -0.19079E-04   -0.25510E-04  7849   0.486E-02    0.107E-01
RMM:   6    -0.647834229822E+03    0.58687E-04   -0.76367E-05  6066   0.328E-02    0.457E-02
RMM:   7    -0.647834225251E+03    0.45708E-05   -0.57882E-05  5785   0.264E-02
  44 F= -.64783423E+03 E0= -.64775929E+03  d E =-.315372E-03
 trial-energy change:   -0.000315  1 .order   -0.000324   -0.000447   -0.000200
 step:   1.6032(harm=  1.6032)  dis= 0.00206  next Energy=  -647.834315 (dE=-0.405E-03)
 bond charge predicted
       N       E                     dE             d eps       ncg     rms          rms(c)
DAV:   1    -0.647833426620E+03    0.80320E-03   -0.64230E-02  8640   0.134E+00    0.116E-01
RMM:   2    -0.647835483006E+03   -0.20564E-02   -0.12873E-02 11512   0.342E-01    0.361E-01
RMM:   3    -0.647834426646E+03    0.10564E-02   -0.13251E-03  9840   0.150E-01    0.189E-01
RMM:   4    -0.647834249317E+03    0.17733E-03   -0.42417E-04  8939   0.750E-02    0.811E-02
RMM:   5    -0.647834257149E+03   -0.78324E-05   -0.22668E-04  7634   0.409E-02    0.865E-02
RMM:   6    -0.647834227183E+03    0.29966E-04   -0.63258E-05  5701   0.321E-02    0.503E-02
RMM:   7    -0.647834214338E+03    0.12846E-04   -0.47571E-05  5514   0.248E-02    0.235E-02
RMM:   8    -0.647834226309E+03   -0.11972E-04   -0.45526E-05  5759   0.231E-02    0.470E-02
RMM:   9    -0.647834213153E+03    0.13156E-04   -0.20893E-05  4970   0.236E-02    0.128E-02
RMM:  10    -0.647834215950E+03   -0.27964E-05   -0.12892E-05  4873   0.152E-02
  45 F= -.64783422E+03 E0= -.64775935E+03  d E =-.306070E-03
 curvature:  -1.08 expect dE=-0.504E-03 dE for cont linesearch -0.299E-04
 ZBRENT: interpolating
 opt :   1.3320  next Energy=  -647.834235 (dE=-0.325E-03)
 bond charge predicted
       N       E                     dE             d eps       ncg     rms          rms(c)
DAV:   1    -0.647834139531E+03    0.73623E-04   -0.93723E-03  9000   0.512E-01    0.432E-02
RMM:   2    -0.647834422377E+03   -0.28285E-03   -0.18400E-03 11081   0.129E-01    0.143E-01
RMM:   3    -0.647834291498E+03    0.13088E-03   -0.16059E-04  7381   0.591E-02    0.893E-02
RMM:   4    -0.647834249605E+03    0.41893E-04   -0.50532E-05  5908   0.337E-02    0.241E-02
RMM:   5    -0.647834252185E+03   -0.25800E-05   -0.21887E-05  5059   0.210E-02
  46 F= -.64783425E+03 E0= -.64775934E+03  d E =-.342306E-03
 curvature:  -0.67 expect dE=-0.268E-03 dE for cont linesearch -0.364E-06
 trial: gam= 0.86873 g(F)=  0.298E-03 g(S)=  0.101E-03 ort = 0.192E-04 (trialstep = 0.701E+00)
 search vector abs. value=  0.945E-03
 bond charge predicted
       N       E                     dE             d eps       ncg     rms          rms(c)
DAV:   1    -0.647832680531E+03    0.15691E-02   -0.10195E-01  9024   0.202E+00    0.123E-01
RMM:   2    -0.647835315448E+03   -0.26349E-02   -0.21559E-02 11815   0.418E-01    0.297E-01
RMM:   3    -0.647834589932E+03    0.72552E-03   -0.20071E-03  9588   0.198E-01    0.194E-01
RMM:   4    -0.647834422820E+03    0.16711E-03   -0.57368E-04  9275   0.877E-02    0.825E-02
RMM:   5    -0.647834441939E+03   -0.19120E-04   -0.22096E-04  7104   0.503E-02    0.103E-01
RMM:   6    -0.647834385536E+03    0.56404E-04   -0.56483E-05  5687   0.316E-02    0.433E-02
RMM:   7    -0.647834381486E+03    0.40497E-05   -0.40348E-05  5452   0.248E-02
  47 F= -.64783438E+03 E0= -.64775949E+03  d E =-.129301E-03
 trial-energy change:   -0.000129  1 .order   -0.000181   -0.000291   -0.000070
 step:   0.9228(harm=  0.9228)  dis= 0.00144  next Energy=  -647.834444 (dE=-0.192E-03)
 bond charge predicted
       N       E                     dE             d eps       ncg     rms          rms(c)
DAV:   1    -0.647834211979E+03    0.17356E-03   -0.10087E-02  9216   0.639E-01    0.559E-02
RMM:   2    -0.647834875607E+03   -0.66363E-03   -0.28915E-03 10966   0.153E-01    0.257E-01
RMM:   3    -0.647834411864E+03    0.46374E-03   -0.35064E-04  8003   0.875E-02    0.809E-02
RMM:   4    -0.647834380480E+03    0.31384E-04   -0.10217E-04  7085   0.379E-02    0.316E-02
RMM:   5    -0.647834383768E+03   -0.32872E-05   -0.35523E-05  5346   0.228E-02
  48 F= -.64783438E+03 E0= -.64775953E+03  d E =-.131583E-03
 curvature:  -1.05 expect dE=-0.245E-03 dE for cont linesearch -0.769E-05
 ZBRENT: interpolating
 opt :   0.8219  next Energy=  -647.834388 (dE=-0.136E-03)
 bond charge predicted
       N       E                     dE             d eps       ncg     rms          rms(c)
DAV:   1    -0.647834343451E+03    0.37029E-04   -0.21641E-03 10752   0.296E-01    0.186E-02
RMM:   2    -0.647834422046E+03   -0.78595E-04   -0.42908E-04  9728   0.596E-02    0.881E-02
RMM:   3    -0.647834377920E+03    0.44127E-04   -0.40649E-05  5357   0.360E-02    0.208E-02
RMM:   4    -0.647834377881E+03    0.38315E-07   -0.11423E-05  4727   0.178E-02
  49 F= -.64783438E+03 E0= -.64775951E+03  d E =-.125697E-03
 curvature:  -0.57 expect dE=-0.207E-03 dE for cont linesearch -0.544E-05
 ZBRENT: interpolating
 opt :   0.8756  next Energy=  -647.834386 (dE=-0.134E-03)
 bond charge predicted
       N       E                     dE             d eps       ncg     rms          rms(c)
DAV:   1    -0.647834371780E+03    0.61399E-05   -0.60288E-04 11352   0.159E-01    0.218E-02
RMM:   2    -0.647834502435E+03   -0.13066E-03   -0.17881E-04  7339   0.484E-02    0.152E-01
RMM:   3    -0.647834380684E+03    0.12175E-03   -0.49308E-05  5611   0.396E-02    0.261E-02
RMM:   4    -0.647834376885E+03    0.37983E-05   -0.85906E-06  4313   0.139E-02
  50 F= -.64783438E+03 E0= -.64775951E+03  d E =-.124701E-03
 curvature:  -0.21 expect dE=-0.616E-04 dE for cont linesearch -0.184E-05
 ZBRENT: bisectioning
 opt :   0.8488  next Energy=  -647.834379 (dE=-0.127E-03)
 bond charge predicted
       N       E                     dE             d eps       ncg     rms          rms(c)
DAV:   1    -0.647834374993E+03    0.56911E-05   -0.15064E-04 11208   0.814E-02    0.865E-03
RMM:   2    -0.647834391561E+03   -0.16568E-04   -0.26716E-05  5292   0.199E-02    0.508E-02
RMM:   3    -0.647834377166E+03    0.14395E-04   -0.10784E-05  4463   0.216E-02    0.114E-02
RMM:   4    -0.647834376584E+03    0.58165E-06   -0.23312E-06  4040   0.662E-03
  51 F= -.64783438E+03 E0= -.64775950E+03  d E =-.124400E-03
 curvature:  -0.28 expect dE=-0.811E-04 dE for cont linesearch -0.615E-06
 trial: gam= 0.43712 g(F)=  0.225E-03 g(S)=  0.608E-04 ort = 0.453E-04 (trialstep = 0.730E+00)
 search vector abs. value=  0.506E-03
 bond charge predicted
       N       E                     dE             d eps       ncg     rms          rms(c)
DAV:   1    -0.647833520823E+03    0.85634E-03   -0.61757E-02  9888   0.157E+00    0.125E-01
RMM:   2    -0.647836100455E+03   -0.25796E-02   -0.15424E-02 11436   0.370E-01    0.412E-01
RMM:   3    -0.647834739198E+03    0.13613E-02   -0.15141E-03  9192   0.175E-01    0.190E-01
RMM:   4    -0.647834551436E+03    0.18776E-03   -0.52482E-04  9219   0.779E-02    0.948E-02
RMM:   5    -0.647834533518E+03    0.17918E-04   -0.14765E-04  7211   0.434E-02    0.749E-02
RMM:   6    -0.647834509043E+03    0.24475E-04   -0.58436E-05  5669   0.290E-02    0.504E-02
RMM:   7    -0.647834497732E+03    0.11311E-04   -0.26484E-05  5069   0.256E-02    0.290E-02
RMM:   8    -0.647834501942E+03   -0.42099E-05   -0.35701E-05  5528   0.224E-02
  52 F= -.64783450E+03 E0= -.64775963E+03  d E =-.125357E-03
 trial-energy change:   -0.000125  1 .order   -0.000139   -0.000223   -0.000054
 step:   0.9638(harm=  0.9638)  dis= 0.00095  next Energy=  -647.834524 (dE=-0.147E-03)
 bond charge predicted
       N       E                     dE             d eps       ncg     rms          rms(c)
DAV:   1    -0.647834403397E+03    0.94335E-04   -0.62929E-03 10680   0.503E-01    0.415E-02
RMM:   2    -0.647834721519E+03   -0.31812E-03   -0.14571E-03 10547   0.120E-01    0.170E-01
RMM:   3    -0.647834519296E+03    0.20222E-03   -0.18535E-04  7312   0.661E-02    0.540E-02
RMM:   4    -0.647834502903E+03    0.16393E-04   -0.52533E-05  5968   0.286E-02    0.313E-02
RMM:   5    -0.647834501247E+03    0.16566E-05   -0.16252E-05  4826   0.209E-02
  53 F= -.64783450E+03 E0= -.64775967E+03  d E =-.124662E-03
 curvature:  -0.80 expect dE=-0.937E-04 dE for cont linesearch -0.282E-05
 ZBRENT: interpolating
 opt :   0.8789  next Energy=  -647.834503 (dE=-0.126E-03)
 bond charge predicted
       N       E                     dE             d eps       ncg     rms          rms(c)
DAV:   1    -0.647834490786E+03    0.12117E-04   -0.85977E-04 10968   0.186E-01    0.211E-02
RMM:   2    -0.647834591812E+03   -0.10103E-03   -0.22214E-04  7804   0.541E-02    0.122E-01
RMM:   3    -0.647834503882E+03    0.87930E-04   -0.51067E-05  5664   0.393E-02    0.276E-02
RMM:   4    -0.647834500926E+03    0.29556E-05   -0.93145E-06  4268   0.156E-02
  54 F= -.64783450E+03 E0= -.64775966E+03  d E =-.124342E-03
 curvature:  -0.51 expect dE=-0.719E-04 dE for cont linesearch -0.756E-05
 ZBRENT: interpolating
 opt :   0.9360  next Energy=  -647.834502 (dE=-0.125E-03)
 bond charge predicted
       N       E                     dE             d eps       ncg     rms          rms(c)
DAV:   1    -0.647834495406E+03    0.84763E-05   -0.36575E-04 10728   0.124E-01    0.968E-03
RMM:   2    -0.647834515700E+03   -0.20294E-04   -0.62149E-05  6044   0.278E-02    0.499E-02
RMM:   3    -0.647834500750E+03    0.14949E-04   -0.14139E-05  4583   0.249E-02    0.108E-02
RMM:   4    -0.647834500819E+03   -0.68299E-07   -0.41134E-06  4116   0.947E-03
  55 F= -.64783450E+03 E0= -.64775965E+03  d E =-.124234E-03
 curvature:  -0.04 expect dE=-0.494E-05 dE for cont linesearch -0.189E-06
 ZBRENT: bisectioning
 opt :   0.9075  next Energy=  -647.834502 (dE=-0.126E-03)
 bond charge predicted
       N       E                     dE             d eps       ncg     rms          rms(c)
DAV:   1    -0.647834500096E+03    0.65438E-06   -0.88747E-05  9144   0.638E-02    0.746E-03
RMM:   2    -0.647834513420E+03   -0.13324E-04   -0.18968E-05  5148   0.175E-02    0.477E-02
RMM:   3    -0.647834501486E+03    0.11934E-04   -0.87161E-06  4166   0.197E-02    0.114E-02
RMM:   4    -0.647834500974E+03    0.51155E-06   -0.19082E-06  3926   0.596E-03
  56 F= -.64783450E+03 E0= -.64775965E+03  d E =-.124390E-03
 curvature:  -0.31 expect dE=-0.441E-04 dE for cont linesearch -0.121E-05
 ZBRENT: interpolating
 opt :   0.9210  next Energy=  -647.834501 (dE=-0.125E-03)
 bond charge predicted
       N       E                     dE             d eps       ncg     rms          rms(c)
DAV:   1    -0.647834500453E+03    0.10330E-05   -0.16224E-05  5976   0.312E-02    0.518E-03
RMM:   2    -0.647834507370E+03   -0.69171E-05   -0.83619E-06  4338   0.150E-02
  57 F= -.64783451E+03 E0= -.64775966E+03  d E =-.130785E-03
 curvature:  -0.08 expect dE=-0.196E-04 dE for cont linesearch -0.230E-05
 ZBRENT: interpolating
 opt :   0.9111  next Energy=  -647.834501 (dE=-0.124E-03)
 bond charge predicted
       N       E                     dE             d eps       ncg     rms          rms(c)
DAV:   1    -0.647834501219E+03   -0.76601E-06   -0.19029E-05  5376   0.368E-02    0.621E-03
RMM:   2    -0.647834510847E+03   -0.96285E-05   -0.74044E-06  4448   0.134E-02
  58 F= -.64783451E+03 E0= -.64775969E+03  d E =-.134263E-03
 curvature:  -0.00 expect dE=-0.339E-06 dE for cont linesearch -0.741E-07
 ZBRENT: bisectioning
 opt :   0.9160  next Energy=  -647.834512 (dE=-0.135E-03)
 bond charge predicted
       N       E                     dE             d eps       ncg     rms          rms(c)
DAV:   1    -0.647834501474E+03   -0.25526E-06   -0.24559E-05  5256   0.334E-02    0.861E-03
RMM:   2    -0.647834520871E+03   -0.19397E-04   -0.11652E-05  4933   0.149E-02    0.601E-02
RMM:   3    -0.647834502554E+03    0.18317E-04   -0.79162E-06  3992   0.159E-02    0.146E-02
RMM:   4    -0.647834501118E+03    0.14359E-05   -0.10040E-06  3480   0.503E-03
  59 F= -.64783450E+03 E0= -.64775965E+03  d E =-.124534E-03
 curvature:  -0.03 expect dE=-0.403E-05 dE for cont linesearch -0.113E-07
 trial: gam= 0.49740 g(F)=  0.888E-04 g(S)=  0.439E-04 ort =-0.138E-04 (trialstep = 0.767E+00)
 search vector abs. value=  0.244E-03
 bond charge predicted
       N       E                     dE             d eps       ncg     rms          rms(c)
DAV:   1    -0.647834152900E+03    0.34965E-03   -0.30318E-02  9504   0.102E+00    0.925E-02
RMM:   2    -0.647835230566E+03   -0.10777E-02   -0.73544E-03 11397   0.265E-01    0.242E-01
RMM:   3    -0.647834713395E+03    0.51717E-03   -0.70394E-04  8874   0.109E-01    0.152E-01
RMM:   4    -0.647834590322E+03    0.12307E-03   -0.22828E-04  8524   0.548E-02    0.581E-02
RMM:   5    -0.647834595086E+03   -0.47640E-05   -0.72812E-05  6101   0.335E-02
  60 F= -.64783460E+03 E0= -.64775965E+03  d E =-.939683E-04
 trial-energy change:   -0.000094  1 .order   -0.000055   -0.000097   -0.000014
 step:   0.8964(harm=  0.8964)  dis= 0.00094  next Energy=  -647.834558 (dE=-0.564E-04)
 reached required accuracy - stopping structural energy minimisation
