<?xml version="1.0" encoding="ISO-8859-1"?>
<modeling>
 <generator>
  <i name="program" type="string">vasp </i>
  <i name="version" type="string">5.4.4.18Apr17-6-g9f103f2a35  </i>
  <i name="subversion" type="string">(build Oct 18 2021 20:38:43) complex            parallel </i>
  <i name="platform" type="string">LinuxIFC </i>
  <i name="date" type="string">2024 06 11 </i>
  <i name="time" type="string">17:00:45 </i>
 </generator>
 <incar>
  <i type="string" name="SYSTEM">HECN</i>
  <i type="int" name="ISTART">     0</i>
  <i type="string" name="PREC">normal</i>
  <i type="string" name="ALGO">Fast</i>
  <i type="int" name="ICHARG">     2</i>
  <i type="int" name="NELM">    60</i>
  <i type="int" name="IBRION">     2</i>
  <i name="EDIFF">      0.00001000</i>
  <i name="EDIFFG">     -0.01000000</i>
  <i type="int" name="NSW">   100</i>
  <i type="int" name="ISIF">     3</i>
  <i name="ENCUT">    400.00000000</i>
  <i name="POTIM">      0.50000000</i>
  <i type="logical" name="LREAL"> F  </i>
  <i type="int" name="ISMEAR">     0</i>
  <i name="SIGMA">      0.10000000</i>
  <i type="logical" name="LWAVE"> F  </i>
  <i type="logical" name="LCHARG"> F  </i>
  <v type="int" name="KPOINT_BSE">    -1     0     0     0</v>
  <i type="int" name="NELM">    60</i>
 </incar>
 <structure name="primitive_cell" >
  <crystal>
   <varray name="basis" >
    <v>       8.93249989       0.00000000       0.00000000 </v>
    <v>       0.00575300       9.05559834       0.00000000 </v>
    <v>       0.03210180      -0.01574346       8.93712807 </v>
   </varray>
   <i name="volume">    722.91652451 </i>
   <varray name="rec_basis" >
    <v>       0.11195074      -0.00007112      -0.00040225 </v>
    <v>       0.00000000       0.11042893       0.00019453 </v>
    <v>       0.00000000       0.00000000       0.11189277 </v>
   </varray>
  </crystal>
  <varray name="positions" >
   <v>      -0.00311999      -0.00795003      -0.00075998 </v>
   <v>      -0.25232999      -0.00252000       0.01202000 </v>
   <v>      -0.00162995      -0.25686004       0.00460000 </v>
   <v>      -0.00280000      -0.00228008       0.25899999 </v>
   <v>       0.00281000       0.25024000       0.00130000 </v>
   <v>      -0.01103011       0.00202000      -0.26291001 </v>
   <v>       0.26146999      -0.00015998      -0.00704004 </v>
   <v>      -0.00135002      -0.22426001       0.26102000 </v>
   <v>      -0.25720997      -0.02130006      -0.23549005 </v>
   <v>       0.23780002       0.01082000      -0.25392002 </v>
   <v>      -0.24282000      -0.25897003       0.01100000 </v>
   <v>       0.24762001      -0.25026001      -0.00025994 </v>
   <v>      -0.00485996      -0.25507996      -0.25488003 </v>
   <v>      -0.24281000       0.25603001      -0.00408003 </v>
   <v>       0.25398003      -0.00285005       0.24912000 </v>
   <v>       0.24788999       0.24839000      -0.00342003 </v>
   <v>      -0.00562996       0.23617001       0.26379999 </v>
   <v>      -0.25120996      -0.01212001       0.26967001 </v>
   <v>       0.00201000       0.25541000      -0.26105999 </v>
   <v>       0.24177002      -0.24659003      -0.24981998 </v>
   <v>      -0.24963995      -0.25112000      -0.25243996 </v>
   <v>      -0.24255004       0.24437997      -0.25103001 </v>
   <v>       0.25133999      -0.25041998       0.24910999 </v>
   <v>      -0.24367000      -0.26108997       0.25767000 </v>
   <v>      -0.24686002       0.24616999       0.25492002 </v>
   <v>       0.24982001       0.24942998       0.24825000 </v>
   <v>       0.24900999       0.25315000      -0.25146000 </v>
   <v>      -0.48411003       0.01358000      -0.01924992 </v>
   <v>      -0.00158006      -0.49023002      -0.01386996 </v>
   <v>       0.02362000      -0.00216999       0.49557002 </v>
   <v>      -0.49480995      -0.23869001       0.00855000 </v>
   <v>      -0.49285006      -0.00023001       0.24673000 </v>
   <v>      -0.24160996      -0.49684002       0.00288000 </v>
   <v>      -0.00999997      -0.23784997       0.49746000 </v>
   <v>      -0.00948001       0.48088003       0.24100999 </v>
   <v>       0.24446000      -0.00176004      -0.49712002 </v>
   <v>      -0.26367999       0.00417000      -0.48937000 </v>
   <v>       0.24328000      -0.49927003      -0.00489006 </v>
   <v>      -0.49572003       0.24673000       0.00262000 </v>
   <v>      -0.00796004      -0.49944001      -0.24861998 </v>
   <v>      -0.00195991       0.24229999      -0.49871997 </v>
   <v>      -0.49991002       0.00061000      -0.26528002 </v>
   <v>      -0.26123997      -0.47171998      -0.26185001 </v>
   <v>       0.49950005      -0.24518001      -0.25182996 </v>
   <v>       0.24457999      -0.24951001       0.49983999 </v>
   <v>      -0.24599997      -0.27062001       0.49116997 </v>
   <v>      -0.49520997       0.24631001      -0.25289998 </v>
   <v>       0.24803003      -0.49835000       0.24955001 </v>
   <v>      -0.26448999      -0.48531996       0.26666001 </v>
   <v>      -0.49167000       0.25676999       0.25376001 </v>
   <v>      -0.49620997      -0.26073003       0.25905001 </v>
   <v>      -0.24692999       0.26163001      -0.49466998 </v>
   <v>       0.25272001       0.24823001      -0.49984997 </v>
   <v>       0.25679999       0.49462002      -0.25454998 </v>
   <v>       0.47957999      -0.01691999       0.49717999 </v>
   <v>      -0.49498994       0.49745998      -0.00165997 </v>
   <v>      -0.00572008      -0.49550001       0.49779000 </v>
   <v>      -0.49436004       0.23264998       0.49544997 </v>
   <v>      -0.49424994      -0.25041998       0.49720000 </v>
   <v>      -0.49299998      -0.49666998       0.25878999 </v>
   <v>      -0.49498997      -0.49782002      -0.26087997 </v>
   <v>      -0.25963999      -0.49803000      -0.49932997 </v>
   <v>       0.25841001      -0.49937998      -0.49870999 </v>
   <v>      -0.49461000      -0.47166995       0.49917999 </v>
  </varray>
 </structure>
 <varray name="primitive_index" >
  <v type="int" >        1 </v>
  <v type="int" >       25 </v>
  <v type="int" >       38 </v>
  <v type="int" >       34 </v>
  <v type="int" >       23 </v>
  <v type="int" >       29 </v>
  <v type="int" >       22 </v>
  <v type="int" >       59 </v>
  <v type="int" >       58 </v>
  <v type="int" >       56 </v>
  <v type="int" >        9 </v>
  <v type="int" >       18 </v>
  <v type="int" >       12 </v>
  <v type="int" >       17 </v>
  <v type="int" >        2 </v>
  <v type="int" >       14 </v>
  <v type="int" >        8 </v>
  <v type="int" >       16 </v>
  <v type="int" >       10 </v>
  <v type="int" >       45 </v>
  <v type="int" >       49 </v>
  <v type="int" >       30 </v>
  <v type="int" >       36 </v>
  <v type="int" >       39 </v>
  <v type="int" >       24 </v>
  <v type="int" >       21 </v>
  <v type="int" >       42 </v>
  <v type="int" >       53 </v>
  <v type="int" >       54 </v>
  <v type="int" >       61 </v>
  <v type="int" >       28 </v>
  <v type="int" >       26 </v>
  <v type="int" >       40 </v>
  <v type="int" >       47 </v>
  <v type="int" >       27 </v>
  <v type="int" >       43 </v>
  <v type="int" >       31 </v>
  <v type="int" >       37 </v>
  <v type="int" >       35 </v>
  <v type="int" >       48 </v>
  <v type="int" >       44 </v>
  <v type="int" >       33 </v>
  <v type="int" >       63 </v>
  <v type="int" >        7 </v>
  <v type="int" >       20 </v>
  <v type="int" >       64 </v>
  <v type="int" >        5 </v>
  <v type="int" >        3 </v>
  <v type="int" >       60 </v>
  <v type="int" >       15 </v>
  <v type="int" >       55 </v>
  <v type="int" >       11 </v>
  <v type="int" >       19 </v>
  <v type="int" >       13 </v>
  <v type="int" >       57 </v>
  <v type="int" >        4 </v>
  <v type="int" >        6 </v>
  <v type="int" >       32 </v>
  <v type="int" >       51 </v>
  <v type="int" >       41 </v>
  <v type="int" >       52 </v>
  <v type="int" >       50 </v>
  <v type="int" >       46 </v>
  <v type="int" >       62 </v>
 </varray>
 <kpoints>
  <generation param="Gamma">
   <v type="int" name="divisions">       3        3        3 </v>
   <v name="usershift">      0.00000000       0.00000000       0.00000000 </v>
   <v name="genvec1">      0.33333333      -0.00000000      -0.00000000 </v>
   <v name="genvec2">      0.00000000       0.33333333       0.00000000 </v>
   <v name="genvec3">      0.00000000       0.00000000       0.33333333 </v>
   <v name="shift">      0.00000000       0.00000000       0.00000000 </v>
  </generation>
  <varray name="kpointlist" >
   <v>       0.00000000       0.00000000       0.00000000 </v>
   <v>       0.33333333       0.00000000       0.00000000 </v>
   <v>       0.00000000       0.33333333       0.00000000 </v>
   <v>       0.33333333       0.33333333       0.00000000 </v>
   <v>      -0.33333333       0.33333333       0.00000000 </v>
   <v>       0.00000000       0.00000000       0.33333333 </v>
   <v>       0.33333333       0.00000000       0.33333333 </v>
   <v>      -0.33333333       0.00000000       0.33333333 </v>
   <v>       0.00000000       0.33333333       0.33333333 </v>
   <v>       0.33333333       0.33333333       0.33333333 </v>
   <v>      -0.33333333       0.33333333       0.33333333 </v>
   <v>       0.00000000      -0.33333333       0.33333333 </v>
   <v>       0.33333333      -0.33333333       0.33333333 </v>
   <v>      -0.33333333      -0.33333333       0.33333333 </v>
  </varray>
  <varray name="weights" >
   <v>       0.03703704 </v>
   <v>       0.07407407 </v>
   <v>       0.07407407 </v>
   <v>       0.07407407 </v>
   <v>       0.07407407 </v>
   <v>       0.07407407 </v>
   <v>       0.07407407 </v>
   <v>       0.07407407 </v>
   <v>       0.07407407 </v>
   <v>       0.07407407 </v>
   <v>       0.07407407 </v>
   <v>       0.07407407 </v>
   <v>       0.07407407 </v>
   <v>       0.07407407 </v>
  </varray>
 </kpoints>
 <parameters>
  <separator name="general" >
   <i type="string" name="SYSTEM">HECN</i>
   <i type="logical" name="LCOMPAT"> F  </i>
  </separator>
  <separator name="electronic" >
   <i type="string" name="PREC">normal</i>
   <i name="ENMAX">    400.00000000</i>
   <i name="ENAUG">    644.87300000</i>
   <i name="EDIFF">      0.00001000</i>
   <i type="int" name="IALGO">    68</i>
   <i type="int" name="IWAVPR">    11</i>
   <i type="int" name="NBANDS">   288</i>
   <i name="NELECT">    476.00000000</i>
   <i type="int" name="TURBO">     0</i>
   <i type="int" name="IRESTART">     0</i>
   <i type="int" name="NREBOOT">     0</i>
   <i type="int" name="NMIN">     0</i>
   <i name="EREF">      0.00000000</i>
   <separator name="electronic smearing" >
    <i type="int" name="ISMEAR">     0</i>
    <i name="SIGMA">      0.10000000</i>
    <i name="KSPACING">      0.50000000</i>
    <i type="logical" name="KGAMMA"> T  </i>
   </separator>
   <separator name="electronic projectors" >
    <i type="logical" name="LREAL"> F  </i>
    <v name="ROPT">      0.00000000      0.00000000      0.00000000      0.00000000      0.00000000      0.00000000      0.00000000</v>
    <i type="int" name="LMAXPAW">  -100</i>
    <i type="int" name="LMAXMIX">     2</i>
    <i type="logical" name="NLSPLINE"> F  </i>
   </separator>
   <separator name="electronic startup" >
    <i type="int" name="ISTART">     0</i>
    <i type="int" name="ICHARG">     2</i>
    <i type="int" name="INIWAV">     1</i>
   </separator>
   <separator name="electronic spin" >
    <i type="int" name="ISPIN">     1</i>
    <i type="logical" name="LNONCOLLINEAR"> F  </i>
    <v name="MAGMOM">      1.00000000      1.00000000      1.00000000      1.00000000      1.00000000      1.00000000      1.00000000      1.00000000      1.00000000      1.00000000      1.00000000      1.00000000      1.00000000      1.00000000      1.00000000      1.00000000      1.00000000      1.00000000      1.00000000      1.00000000
      1.00000000      1.00000000      1.00000000      1.00000000      1.00000000      1.00000000      1.00000000      1.00000000      1.00000000      1.00000000      1.00000000      1.00000000      1.00000000      1.00000000      1.00000000      1.00000000      1.00000000      1.00000000      1.00000000      1.00000000
      1.00000000      1.00000000      1.00000000      1.00000000      1.00000000      1.00000000      1.00000000      1.00000000      1.00000000      1.00000000      1.00000000      1.00000000      1.00000000      1.00000000      1.00000000      1.00000000      1.00000000      1.00000000      1.00000000      1.00000000
      1.00000000      1.00000000      1.00000000      1.00000000</v>
    <i name="NUPDOWN">     -1.00000000</i>
    <i type="logical" name="LSORBIT"> F  </i>
    <v name="SAXIS">      0.00000000      0.00000000      1.00000000</v>
    <i type="logical" name="LSPIRAL"> F  </i>
    <v name="QSPIRAL">      0.00000000      0.00000000      0.00000000</v>
    <i type="logical" name="LZEROZ"> F  </i>
   </separator>
   <separator name="electronic exchange-correlation" >
    <i type="logical" name="LASPH"> F  </i>
    <i type="logical" name="LMETAGGA"> F  </i>
   </separator>
   <separator name="electronic convergence" >
    <i type="int" name="NELM">    60</i>
    <i type="int" name="NELMDL">    -5</i>
    <i type="int" name="NELMIN">     2</i>
    <i name="ENINI">    400.00000000</i>
    <separator name="electronic convergence detail" >
     <i type="logical" name="LDIAG"> T  </i>
     <i type="logical" name="LSUBROT"> F  </i>
     <i name="WEIMIN">      0.00100000</i>
     <i name="EBREAK">      0.00000001</i>
     <i name="DEPER">      0.30000000</i>
     <i type="int" name="NRMM">     4</i>
     <i name="TIME">      0.40000000</i>
    </separator>
   </separator>
   <separator name="electronic mixer" >
    <i name="AMIX">      0.40000000</i>
    <i name="BMIX">      1.00000000</i>
    <i name="AMIN">      0.10000000</i>
    <i name="AMIX_MAG">      1.60000000</i>
    <i name="BMIX_MAG">      1.00000000</i>
    <separator name="electronic mixer details" >
     <i type="int" name="IMIX">     4</i>
     <i type="logical" name="MIXFIRST"> F  </i>
     <i type="int" name="MAXMIX">   -45</i>
     <i name="WC">    100.00000000</i>
     <i type="int" name="INIMIX">     1</i>
     <i type="int" name="MIXPRE">     1</i>
     <i type="int" name="MREMOVE">     5</i>
    </separator>
   </separator>
   <separator name="electronic dipolcorrection" >
    <i type="logical" name="LDIPOL"> F  </i>
    <i type="logical" name="LMONO"> F  </i>
    <i type="int" name="IDIPOL">     0</i>
    <i name="EPSILON">      1.00000000</i>
    <v name="DIPOL">   -100.00000000   -100.00000000   -100.00000000</v>
    <i name="EFIELD">      0.00000000</i>
   </separator>
  </separator>
  <separator name="grids" >
   <i type="int" name="NGX">    48</i>
   <i type="int" name="NGY">    48</i>
   <i type="int" name="NGZ">    48</i>
   <i type="int" name="NGXF">    96</i>
   <i type="int" name="NGYF">    96</i>
   <i type="int" name="NGZF">    96</i>
   <i type="logical" name="ADDGRID"> F  </i>
  </separator>
  <separator name="ionic" >
   <i type="int" name="NSW">   100</i>
   <i type="int" name="IBRION">     2</i>
   <i type="int" name="MDALGO">     0</i>
   <i type="int" name="ISIF">     3</i>
   <i name="PSTRESS">      0.00000000</i>
   <i name="EDIFFG">     -0.01000000</i>
   <i type="int" name="NFREE">     1</i>
   <i name="POTIM">      0.50000000</i>
   <i name="SMASS">     -3.00000000</i>
   <i name="SCALEE">      1.00000000</i>
  </separator>
  <separator name="ionic md" >
   <i name="TEBEG">      0.00010000</i>
   <i name="TEEND">      0.00010000</i>
   <i type="int" name="NBLOCK">     1</i>
   <i type="int" name="KBLOCK">   100</i>
   <i type="int" name="NPACO">   256</i>
   <i name="APACO">     16.00000000</i>
  </separator>
  <separator name="symmetry" >
   <i type="int" name="ISYM">     2</i>
   <i name="SYMPREC">      0.00001000</i>
  </separator>
  <separator name="dos" >
   <i type="int" name="LORBIT">     0</i>
   <v name="RWIGS">     -1.00000000     -1.00000000     -1.00000000     -1.00000000     -1.00000000     -1.00000000     -1.00000000</v>
   <i type="int" name="NEDOS">   301</i>
   <i name="EMIN">     10.00000000</i>
   <i name="EMAX">    -10.00000000</i>
   <i name="EFERMI">      0.00000000</i>
  </separator>
  <separator name="writing" >
   <i type="int" name="NWRITE">     2</i>
   <i type="logical" name="LWAVE"> F  </i>
   <i type="logical" name="LDOWNSAMPLE"> F  </i>
   <i type="logical" name="LCHARG"> F  </i>
   <i type="logical" name="LPARD"> F  </i>
   <i type="logical" name="LVTOT"> F  </i>
   <i type="logical" name="LVHAR"> F  </i>
   <i type="logical" name="LELF"> F  </i>
   <i type="logical" name="LOPTICS"> F  </i>
   <v name="STM">      0.00000000      0.00000000      0.00000000      0.00000000      0.00000000      0.00000000      0.00000000</v>
  </separator>
  <separator name="performance" >
   <i type="int" name="NPAR">    24</i>
   <i type="int" name="NSIM">     4</i>
   <i type="int" name="NBLK">    -1</i>
   <i type="logical" name="LPLANE"> T  </i>
   <i type="logical" name="LSCALAPACK"> T  </i>
   <i type="logical" name="LSCAAWARE"> F  </i>
   <i type="logical" name="LSCALU"> F  </i>
   <i type="logical" name="LASYNC"> F  </i>
   <i type="logical" name="LORBITALREAL"> F  </i>
  </separator>
  <separator name="miscellaneous" >
   <i type="int" name="IDIOT">     3</i>
   <i type="int" name="ISPECIAL">     0</i>
   <i type="logical" name="LMUSIC"> F  </i>
   <v name="POMASS">     50.94100000    180.94800000    178.49000000     14.00100000     12.01100000     51.99600000     95.94000000</v>
   <v name="DARWINR">      0.00000000      0.00000000      0.00000000      0.00000000      0.00000000      0.00000000      0.00000000</v>
   <v name="DARWINV">      1.00000000      1.00000000      1.00000000      1.00000000      1.00000000      1.00000000      1.00000000</v>
   <i type="logical" name="LCORR"> T  </i>
  </separator>
  <i type="logical" name="GGA_COMPAT"> T  </i>
  <i type="logical" name="LBERRY"> F  </i>
  <i type="int" name="ICORELEVEL">     0</i>
  <i type="logical" name="LDAU"> F  </i>
  <i type="int" name="I_CONSTRAINED_M">     0</i>
  <separator name="electronic exchange-correlation" >
   <i type="string" name="GGA">--</i>
   <i type="int" name="VOSKOWN">     0</i>
   <i type="logical" name="LHFCALC"> F  </i>
   <i type="string" name="PRECFOCK"></i>
   <i type="logical" name="LSYMGRAD"> F  </i>
   <i type="logical" name="LHFONE"> F  </i>
   <i type="logical" name="LRHFCALC"> F  </i>
   <i type="logical" name="LTHOMAS"> F  </i>
   <i type="logical" name="LMODELHF"> F  </i>
   <i name="ENCUT4O">     -1.00000000</i>
   <i type="int" name="EXXOEP">     0</i>
   <i type="int" name="FOURORBIT">     0</i>
   <i name="AEXX">      0.00000000</i>
   <i name="HFALPHA">      0.00000000</i>
   <i name="MCALPHA">      0.00000000</i>
   <i name="ALDAX">      1.00000000</i>
   <i name="AGGAX">      1.00000000</i>
   <i name="ALDAC">      1.00000000</i>
   <i name="AGGAC">      1.00000000</i>
   <i type="int" name="NKREDX">     1</i>
   <i type="int" name="NKREDY">     1</i>
   <i type="int" name="NKREDZ">     1</i>
   <i type="logical" name="SHIFTRED"> F  </i>
   <i type="logical" name="ODDONLY"> F  </i>
   <i type="logical" name="EVENONLY"> F  </i>
   <i type="int" name="LMAXFOCK">     0</i>
   <i type="int" name="NMAXFOCKAE">     0</i>
   <i type="logical" name="LFOCKAEDFT"> F  </i>
   <i name="HFSCREEN">      0.00000000</i>
   <i name="HFSCREENC">      0.00000000</i>
   <i type="int" name="NBANDSGWLOW">     0</i>
  </separator>
  <separator name="vdW DFT" >
   <i type="logical" name="LUSE_VDW"> F  </i>
   <i name="Zab_VDW">     -0.84910000</i>
   <i name="PARAM1">      0.12340000</i>
   <i name="PARAM2">      1.00000000</i>
   <i name="PARAM3">      0.00000000</i>
  </separator>
  <separator name="model GW" >
   <i type="int" name="MODEL_GW">     0</i>
   <i name="MODEL_EPS0">      6.77734242</i>
   <i name="MODEL_ALPHA">      1.00000000</i>
  </separator>
  <separator name="linear response parameters" >
   <i type="logical" name="LEPSILON"> F  </i>
   <i type="logical" name="LRPA"> F  </i>
   <i type="logical" name="LNABLA"> F  </i>
   <i type="logical" name="LVEL"> F  </i>
   <i type="int" name="KINTER">     0</i>
   <i name="CSHIFT">      0.10000000</i>
   <i name="OMEGAMAX">     -1.00000000</i>
   <i name="DEG_THRESHOLD">      0.00200000</i>
   <i name="RTIME">     -0.10000000</i>
   <i name="WPLASMAI">      0.00000000</i>
   <v name="DFIELD">      0.00000000      0.00000000      0.00000000</v>
   <v name="WPLASMA">      0.00000000      0.00000000      0.00000000      0.00000000      0.00000000      0.00000000      0.00000000      0.00000000      0.00000000</v>
  </separator>
  <separator name="orbital magnetization" >
   <i type="logical" name="NUCIND"> F  </i>
   <v name="MAGPOS">      0.00000000      0.00000000      0.00000000</v>
   <i type="logical" name="LNICSALL"> T  </i>
   <i type="logical" name="ORBITALMAG"> F  </i>
   <i type="logical" name="LMAGBLOCH"> F  </i>
   <i type="logical" name="LCHIMAG"> F  </i>
   <i type="logical" name="LGAUGE"> T  </i>
   <i type="int" name="MAGATOM">     0</i>
   <v name="MAGDIPOL">      0.00000000      0.00000000      0.00000000</v>
   <v name="AVECCONST">      0.00000000      0.00000000      0.00000000</v>
  </separator>
  <separator name="response functions" >
   <i type="logical" name="LADDER"> F  </i>
   <i type="logical" name="LRPAFORCE"> F  </i>
   <i type="logical" name="LFXC"> F  </i>
   <i type="logical" name="LHARTREE"> T  </i>
   <i type="int" name="IBSE">     0</i>
   <v type="int" name="KPOINT">    -1     0     0     0</v>
   <i type="logical" name="LTCTE"> F  </i>
   <i type="logical" name="LTETE"> F  </i>
   <i type="logical" name="LTRIPLET"> F  </i>
   <i type="logical" name="LFXCEPS"> F  </i>
   <i type="logical" name="LFXHEG"> F  </i>
   <i type="int" name="NATURALO">     2</i>
   <i type="logical" name="L2ORDER"> F  </i>
   <i type="logical" name="LMP2LT"> F  </i>
   <i type="logical" name="LUSEW"> F  </i>
   <i name="ENCUTGW">     -2.00000000</i>
   <i name="ENCUTGWSOFT">     -2.00000000</i>
   <i name="ENCUTLF">     -1.00000000</i>
   <i type="int" name="LMAXMP2">    -1</i>
   <i name="SCISSOR">      0.00000000</i>
   <i type="int" name="NOMEGA">     0</i>
   <i type="int" name="NOMEGAR">     0</i>
   <i type="int" name="NBANDSGW">    -1</i>
   <i type="int" name="NBANDSO">    -1</i>
   <i type="int" name="NBANDSV">    -1</i>
   <i type="int" name="NELM">    60</i>
   <i type="int" name="NELMHF">     1</i>
   <i type="int" name="DIM">     3</i>
   <i type="int" name="ANTIRES">     0</i>
   <i name="OMEGAMAX">    -30.00000000</i>
   <i name="OMEGAMIN">    -30.00000000</i>
   <i name="OMEGATL">   -200.00000000</i>
   <i type="int" name="OMEGAGRID">   140</i>
   <i name="CSHIFT">     -0.10000000</i>
   <i type="logical" name="SELFENERGY"> F  </i>
   <i type="logical" name="LSPECTRAL"> F  </i>
   <i type="logical" name="LSPECTRALGW"> F  </i>
   <i type="logical" name="LSINGLES"> F  </i>
   <i type="logical" name="LFERMIGW"> F  </i>
   <i type="logical" name="ODDONLYGW"> F  </i>
   <i type="logical" name="EVENONLYGW"> F  </i>
   <i type="int" name="NKREDLFX">     1</i>
   <i type="int" name="NKREDLFY">     1</i>
   <i type="int" name="NKREDLFZ">     1</i>
   <i type="int" name="MAXMEM">  2800</i>
   <i type="int" name="TELESCOPE">     0</i>
   <i type="int" name="TAUPAR">     1</i>
   <i type="int" name="OMEGAPAR">    -1</i>
   <i name="LAMBDA">      1.00000000</i>
  </separator>
  <separator name="External order field" >
   <i name="OFIELD_KAPPA">      0.00000000</i>
   <v name="OFIELD_K">      0.00000000      0.00000000      0.00000000</v>
   <i name="OFIELD_Q6_NEAR">      0.00000000</i>
   <i name="OFIELD_Q6_FAR">      0.00000000</i>
   <i name="OFIELD_A">      0.00000000</i>
  </separator>
 </parameters>
 <atominfo>
  <atoms>      64 </atoms>
  <types>       7 </types>
  <array name="atoms" >
   <dimension dim="1">ion</dimension>
   <field type="string">element</field>
   <field type="int">atomtype</field>
   <set>
    <rc><c>V </c><c>   1</c></rc>
    <rc><c>V </c><c>   1</c></rc>
    <rc><c>V </c><c>   1</c></rc>
    <rc><c>V </c><c>   1</c></rc>
    <rc><c>V </c><c>   1</c></rc>
    <rc><c>V </c><c>   1</c></rc>
    <rc><c>V </c><c>   1</c></rc>
    <rc><c>Ta</c><c>   2</c></rc>
    <rc><c>Ta</c><c>   2</c></rc>
    <rc><c>Ta</c><c>   2</c></rc>
    <rc><c>Ta</c><c>   2</c></rc>
    <rc><c>Ta</c><c>   2</c></rc>
    <rc><c>Ta</c><c>   2</c></rc>
    <rc><c>Hf</c><c>   3</c></rc>
    <rc><c>Hf</c><c>   3</c></rc>
    <rc><c>Hf</c><c>   3</c></rc>
    <rc><c>Hf</c><c>   3</c></rc>
    <rc><c>Hf</c><c>   3</c></rc>
    <rc><c>Hf</c><c>   3</c></rc>
    <rc><c>Hf</c><c>   3</c></rc>
    <rc><c>N </c><c>   4</c></rc>
    <rc><c>N </c><c>   4</c></rc>
    <rc><c>N </c><c>   4</c></rc>
    <rc><c>N </c><c>   4</c></rc>
    <rc><c>N </c><c>   4</c></rc>
    <rc><c>N </c><c>   4</c></rc>
    <rc><c>N </c><c>   4</c></rc>
    <rc><c>N </c><c>   4</c></rc>
    <rc><c>N </c><c>   4</c></rc>
    <rc><c>N </c><c>   4</c></rc>
    <rc><c>N </c><c>   4</c></rc>
    <rc><c>N </c><c>   4</c></rc>
    <rc><c>N </c><c>   4</c></rc>
    <rc><c>C </c><c>   5</c></rc>
    <rc><c>C </c><c>   5</c></rc>
    <rc><c>C </c><c>   5</c></rc>
    <rc><c>C </c><c>   5</c></rc>
    <rc><c>C </c><c>   5</c></rc>
    <rc><c>C </c><c>   5</c></rc>
    <rc><c>C </c><c>   5</c></rc>
    <rc><c>C </c><c>   5</c></rc>
    <rc><c>C </c><c>   5</c></rc>
    <rc><c>C </c><c>   5</c></rc>
    <rc><c>C </c><c>   5</c></rc>
    <rc><c>C </c><c>   5</c></rc>
    <rc><c>C </c><c>   5</c></rc>
    <rc><c>C </c><c>   5</c></rc>
    <rc><c>C </c><c>   5</c></rc>
    <rc><c>C </c><c>   5</c></rc>
    <rc><c>C </c><c>   5</c></rc>
    <rc><c>C </c><c>   5</c></rc>
    <rc><c>C </c><c>   5</c></rc>
    <rc><c>Cr</c><c>   6</c></rc>
    <rc><c>Cr</c><c>   6</c></rc>
    <rc><c>Cr</c><c>   6</c></rc>
    <rc><c>Cr</c><c>   6</c></rc>
    <rc><c>Cr</c><c>   6</c></rc>
    <rc><c>Cr</c><c>   6</c></rc>
    <rc><c>Mo</c><c>   7</c></rc>
    <rc><c>Mo</c><c>   7</c></rc>
    <rc><c>Mo</c><c>   7</c></rc>
    <rc><c>Mo</c><c>   7</c></rc>
    <rc><c>Mo</c><c>   7</c></rc>
    <rc><c>Mo</c><c>   7</c></rc>
   </set>
  </array>
  <array name="atomtypes" >
   <dimension dim="1">type</dimension>
   <field type="int">atomspertype</field>
   <field type="string">element</field>
   <field>mass</field>
   <field>valence</field>
   <field type="string">pseudopotential</field>
   <set>
    <rc><c>   7</c><c>V </c><c>     50.94100000</c><c>     13.00000000</c><c> PAW_PBE V_sv 07Sep2000                 </c></rc>
    <rc><c>   6</c><c>Ta</c><c>    180.94800000</c><c>     11.00000000</c><c> PAW_PBE Ta_pv 07Sep2000                </c></rc>
    <rc><c>   7</c><c>Hf</c><c>    178.49000000</c><c>     10.00000000</c><c> PAW_PBE Hf_pv 06Sep2000                </c></rc>
    <rc><c>  13</c><c>N </c><c>     14.00100000</c><c>      5.00000000</c><c> PAW_PBE N 08Apr2002                    </c></rc>
    <rc><c>  19</c><c>C </c><c>     12.01100000</c><c>      4.00000000</c><c> PAW_PBE C 08Apr2002                    </c></rc>
    <rc><c>   6</c><c>Cr</c><c>     51.99600000</c><c>     12.00000000</c><c> PAW_PBE Cr_pv 07Sep2000                </c></rc>
    <rc><c>   6</c><c>Mo</c><c>     95.94000000</c><c>      6.00000000</c><c> PAW_PBE Mo 08Apr2002                   </c></rc>
   </set>
  </array>
 </atominfo>
 <structure name="initialpos" >
  <crystal>
   <varray name="basis" >
    <v>       8.93249989       0.00000000       0.00000000 </v>
    <v>       0.00575300       9.05559834       0.00000000 </v>
    <v>       0.03210180      -0.01574346       8.93712807 </v>
   </varray>
   <i name="volume">    722.91652451 </i>
   <varray name="rec_basis" >
    <v>       0.11195074      -0.00007112      -0.00040225 </v>
    <v>       0.00000000       0.11042893       0.00019453 </v>
    <v>       0.00000000       0.00000000       0.11189277 </v>
   </varray>
  </crystal>
  <varray name="positions" >
   <v>       0.99688001       0.99204997       0.99924002 </v>
   <v>       0.25398003       0.99714995       0.24912000 </v>
   <v>       0.24803003       0.50165000       0.24955001 </v>
   <v>       0.50501006       0.49745998       0.99834003 </v>
   <v>       0.50479003       0.24631001       0.74710002 </v>
   <v>       0.99427992       0.50449999       0.49779000 </v>
   <v>       0.49950005       0.75481999       0.74817004 </v>
   <v>       0.99437004       0.23617001       0.26379999 </v>
   <v>       0.75718000       0.74102998       0.01100000 </v>
   <v>       0.00201000       0.25541000       0.73894001 </v>
   <v>       0.75307001       0.26163001       0.50533002 </v>
   <v>       0.99514004       0.74492004       0.74511997 </v>
   <v>       0.25679999       0.49462002       0.74545002 </v>
   <v>       0.24788999       0.24839000       0.99657997 </v>
   <v>       0.50833000       0.25676999       0.25376001 </v>
   <v>       0.74879004       0.98787999       0.26967001 </v>
   <v>       0.75719000       0.25603001       0.99591997 </v>
   <v>       0.24762001       0.74973999       0.99974006 </v>
   <v>       0.25272001       0.24823001       0.50015003 </v>
   <v>       0.24457999       0.75048999       0.49983999 </v>
   <v>       0.24982001       0.24942998       0.24825000 </v>
   <v>       0.26146999       0.99984002       0.99295996 </v>
   <v>       0.00281000       0.25024000       0.00130000 </v>
   <v>       0.75313998       0.24617000       0.25492002 </v>
   <v>       0.74767001       0.99748000       0.01202000 </v>
   <v>       0.50714994       0.99977000       0.24673000 </v>
   <v>       0.99051999       0.48088002       0.24100998 </v>
   <v>       0.50519005       0.76130999       0.00855000 </v>
   <v>       0.98896989       0.00202000       0.73708999 </v>
   <v>       0.75744996       0.24437997       0.74896999 </v>
   <v>       0.73632001       0.00417000       0.51063000 </v>
   <v>       0.50563996       0.23264999       0.49544997 </v>
   <v>       0.50008998       0.00061000       0.73471998 </v>
   <v>       0.99720000       0.99771992       0.25899999 </v>
   <v>       0.50427997       0.24673000       0.00262000 </v>
   <v>       0.25133999       0.74958002       0.24910999 </v>
   <v>       0.24328000       0.50072997       0.99510994 </v>
   <v>       0.99837005       0.74313996       0.00460000 </v>
   <v>       0.75633000       0.73891003       0.25767000 </v>
   <v>       0.75839004       0.50315998       0.00288000 </v>
   <v>       0.50700002       0.50333002       0.25878999 </v>
   <v>       0.24900999       0.25315000       0.74854000 </v>
   <v>       0.24446000       0.99823996       0.50287998 </v>
   <v>       0.99804009       0.24229999       0.50128003 </v>
   <v>       0.24177002       0.75340997       0.75018002 </v>
   <v>       0.25841001       0.50062002       0.50129001 </v>
   <v>       0.99000004       0.76215003       0.49746000 </v>
   <v>       0.99203996       0.50055999       0.75138002 </v>
   <v>       0.75036005       0.74888000       0.74756004 </v>
   <v>       0.74036002       0.50197000       0.50067003 </v>
   <v>       0.50575006       0.74958002       0.49720000 </v>
   <v>       0.50501003       0.50217998       0.73912003 </v>
   <v>       0.51588997       0.01358000       0.98075008 </v>
   <v>       0.99841994       0.50976998       0.98613004 </v>
   <v>       0.50379003       0.73926997       0.25905001 </v>
   <v>       0.23780002       0.01082000       0.74607998 </v>
   <v>       0.47957999       0.98308000       0.49717999 </v>
   <v>       0.74279003       0.97869994       0.76450995 </v>
   <v>       0.99864998       0.77573999       0.26102000 </v>
   <v>       0.73551001       0.51468004       0.26666001 </v>
   <v>       0.02362000       0.99783001       0.49557002 </v>
   <v>       0.50539000       0.52833005       0.49917999 </v>
   <v>       0.73876003       0.52828003       0.73814999 </v>
   <v>       0.75400003       0.72937999       0.49116997 </v>
  </varray>
 </structure>
 <calculation>
  <scstep>
   <time name="dav">   19.87   20.00</time>
   <time name="total">   19.91   20.05</time>
   <energy>
    <i name="alphaZ">   3788.14619682 </i>
    <i name="ewald"> -35940.35512143 </i>
    <i name="hartreedc">  -8696.74011863 </i>
    <i name="XCdc">   1269.76273219 </i>
    <i name="pawpsdc">  27809.05958919 </i>
    <i name="pawaedc"> -27629.22369291 </i>
    <i name="eentropy">     -0.08441727 </i>
    <i name="bandstr">   1678.79813152 </i>
    <i name="atom">  43375.55075950 </i>
    <i name="e_fr_energy">   5654.91405898 </i>
    <i name="e_wo_entrp">   5654.99847625 </i>
    <i name="e_0_energy">   5654.95626762 </i>
   </energy>
  </scstep>
  <scstep>
   <time name="dav">   20.91   20.97</time>
   <time name="total">   20.91   20.97</time>
   <energy>
    <i name="e_fr_energy">    166.69885798 </i>
    <i name="e_wo_entrp">    166.85583042 </i>
    <i name="e_0_energy">    166.77734420 </i>
   </energy>
  </scstep>
  <scstep>
   <time name="dav">   28.33   28.40</time>
   <time name="total">   28.33   28.41</time>
   <energy>
    <i name="e_fr_energy">   -692.10664831 </i>
    <i name="e_wo_entrp">   -691.95596719 </i>
    <i name="e_0_energy">   -692.03130775 </i>
   </energy>
  </scstep>
  <scstep>
   <time name="dav">   30.40   30.50</time>
   <time name="total">   30.40   30.50</time>
   <energy>
    <i name="e_fr_energy">   -789.23816030 </i>
    <i name="e_wo_entrp">   -789.11744591 </i>
    <i name="e_0_energy">   -789.17780311 </i>
   </energy>
  </scstep>
  <scstep>
   <time name="dav">   30.25   30.38</time>
   <time name="total">   30.51   30.64</time>
   <energy>
    <i name="e_fr_energy">   -795.55425438 </i>
    <i name="e_wo_entrp">   -795.42947683 </i>
    <i name="e_0_energy">   -795.49186560 </i>
   </energy>
  </scstep>
  <scstep>
   <time name="diag">    1.64    1.64</time>
   <time name="diis">   18.36   18.42</time>
   <time name="orth">    0.39    0.39</time>
   <time name="total">   20.67   20.73</time>
   <energy>
    <i name="e_fr_energy">   -941.37806279 </i>
    <i name="e_wo_entrp">   -941.10005283 </i>
    <i name="e_0_energy">   -941.23905781 </i>
   </energy>
  </scstep>
  <scstep>
   <time name="diag">    1.65    1.65</time>
   <time name="diis">   18.56   18.58</time>
   <time name="orth">    0.39    0.39</time>
   <time name="total">   20.87   20.90</time>
   <energy>
    <i name="e_fr_energy">   -671.24794247 </i>
    <i name="e_wo_entrp">   -671.11297347 </i>
    <i name="e_0_energy">   -671.18045797 </i>
   </energy>
  </scstep>
  <scstep>
   <time name="diag">    1.64    1.64</time>
   <time name="diis">   17.88   17.90</time>
   <time name="orth">    0.39    0.39</time>
   <time name="total">   20.20   20.22</time>
   <energy>
    <i name="e_fr_energy">   -659.38730656 </i>
    <i name="e_wo_entrp">   -659.24932917 </i>
    <i name="e_0_energy">   -659.31831786 </i>
   </energy>
  </scstep>
  <scstep>
   <time name="diag">    1.64    1.64</time>
   <time name="diis">   17.93   17.99</time>
   <time name="orth">    0.39    0.39</time>
   <time name="total">   20.26   20.32</time>
   <energy>
    <i name="e_fr_energy">   -641.69232473 </i>
    <i name="e_wo_entrp">   -641.46597375 </i>
    <i name="e_0_energy">   -641.57914924 </i>
   </energy>
  </scstep>
  <scstep>
   <time name="diag">    1.63    1.64</time>
   <time name="diis">   18.40   18.42</time>
   <time name="orth">    0.38    0.38</time>
   <time name="total">   20.70   20.72</time>
   <energy>
    <i name="e_fr_energy">   -640.67766896 </i>
    <i name="e_wo_entrp">   -640.43748744 </i>
    <i name="e_0_energy">   -640.55757820 </i>
   </energy>
  </scstep>
  <scstep>
   <time name="diag">    1.65    1.65</time>
   <time name="diis">   18.02   18.05</time>
   <time name="orth">    0.38    0.38</time>
   <time name="total">   20.34   20.39</time>
   <energy>
    <i name="e_fr_energy">   -640.32904948 </i>
    <i name="e_wo_entrp">   -640.09904688 </i>
    <i name="e_0_energy">   -640.21404818 </i>
   </energy>
  </scstep>
  <scstep>
   <time name="diag">    1.63    1.63</time>
   <time name="diis">   18.17   18.23</time>
   <time name="orth">    0.38    0.38</time>
   <time name="total">   20.49   20.55</time>
   <energy>
    <i name="e_fr_energy">   -638.78952723 </i>
    <i name="e_wo_entrp">   -638.54156110 </i>
    <i name="e_0_energy">   -638.66554417 </i>
   </energy>
  </scstep>
  <scstep>
   <time name="diag">    1.64    1.64</time>
   <time name="diis">   18.25   18.26</time>
   <time name="orth">    0.38    0.38</time>
   <time name="total">   20.56   20.58</time>
   <energy>
    <i name="e_fr_energy">   -639.06967124 </i>
    <i name="e_wo_entrp">   -638.81213147 </i>
    <i name="e_0_energy">   -638.94090136 </i>
   </energy>
  </scstep>
  <scstep>
   <time name="diag">    1.64    1.64</time>
   <time name="diis">   18.90   18.93</time>
   <time name="orth">    0.38    0.38</time>
   <time name="total">   21.19   21.24</time>
   <energy>
    <i name="e_fr_energy">   -638.91321649 </i>
    <i name="e_wo_entrp">   -638.66336750 </i>
    <i name="e_0_energy">   -638.78829200 </i>
   </energy>
  </scstep>
  <scstep>
   <time name="diag">    1.64    1.64</time>
   <time name="diis">   17.59   17.65</time>
   <time name="orth">    0.38    0.38</time>
   <time name="total">   19.92   19.98</time>
   <energy>
    <i name="e_fr_energy">   -638.43225005 </i>
    <i name="e_wo_entrp">   -638.18376063 </i>
    <i name="e_0_energy">   -638.30800534 </i>
   </energy>
  </scstep>
  <scstep>
   <time name="diag">    1.64    1.64</time>
   <time name="diis">   17.70   17.72</time>
   <time name="orth">    0.38    0.38</time>
   <time name="total">   20.03   20.05</time>
   <energy>
    <i name="e_fr_energy">   -638.39098724 </i>
    <i name="e_wo_entrp">   -638.13567385 </i>
    <i name="e_0_energy">   -638.26333055 </i>
   </energy>
  </scstep>
  <scstep>
   <time name="diag">    1.63    1.63</time>
   <time name="diis">   17.62   17.69</time>
   <time name="orth">    0.38    0.38</time>
   <time name="total">   19.94   20.03</time>
   <energy>
    <i name="e_fr_energy">   -638.07166310 </i>
    <i name="e_wo_entrp">   -637.80351670 </i>
    <i name="e_0_energy">   -637.93758990 </i>
   </energy>
  </scstep>
  <scstep>
   <time name="diag">    1.64    1.64</time>
   <time name="diis">   18.48   18.53</time>
   <time name="orth">    0.38    0.38</time>
   <time name="total">   20.80   20.85</time>
   <energy>
    <i name="e_fr_energy">   -638.07268100 </i>
    <i name="e_wo_entrp">   -637.81431555 </i>
    <i name="e_0_energy">   -637.94349828 </i>
   </energy>
  </scstep>
  <scstep>
   <time name="diag">    1.63    1.63</time>
   <time name="diis">   19.22   19.28</time>
   <time name="orth">    0.38    0.38</time>
   <time name="total">   21.51   21.57</time>
   <energy>
    <i name="e_fr_energy">   -638.03359710 </i>
    <i name="e_wo_entrp">   -637.76434814 </i>
    <i name="e_0_energy">   -637.89897262 </i>
   </energy>
  </scstep>
  <scstep>
   <time name="diag">    1.64    1.64</time>
   <time name="diis">   19.47   19.57</time>
   <time name="orth">    0.38    0.38</time>
   <time name="total">   21.77   21.88</time>
   <energy>
    <i name="e_fr_energy">   -638.01083935 </i>
    <i name="e_wo_entrp">   -637.74592324 </i>
    <i name="e_0_energy">   -637.87838130 </i>
   </energy>
  </scstep>
  <scstep>
   <time name="diag">    1.63    1.63</time>
   <time name="diis">   19.17   19.20</time>
   <time name="orth">    0.38    0.38</time>
   <time name="total">   21.46   21.49</time>
   <energy>
    <i name="e_fr_energy">   -638.01944435 </i>
    <i name="e_wo_entrp">   -637.75186892 </i>
    <i name="e_0_energy">   -637.88565664 </i>
   </energy>
  </scstep>
  <scstep>
   <time name="diag">    1.64    1.64</time>
   <time name="diis">   18.43   18.49</time>
   <time name="orth">    0.39    0.39</time>
   <time name="total">   20.76   20.82</time>
   <energy>
    <i name="e_fr_energy">   -638.00929717 </i>
    <i name="e_wo_entrp">   -637.74252175 </i>
    <i name="e_0_energy">   -637.87590946 </i>
   </energy>
  </scstep>
  <scstep>
   <time name="diag">    1.63    1.63</time>
   <time name="diis">   18.52   18.60</time>
   <time name="orth">    0.38    0.38</time>
   <time name="total">   20.84   20.92</time>
   <energy>
    <i name="e_fr_energy">   -638.00941139 </i>
    <i name="e_wo_entrp">   -637.74369091 </i>
    <i name="e_0_energy">   -637.87655115 </i>
   </energy>
  </scstep>
  <scstep>
   <time name="diag">    1.63    1.63</time>
   <time name="diis">   18.38   18.42</time>
   <time name="orth">    0.38    0.38</time>
   <time name="total">   20.69   20.73</time>
   <energy>
    <i name="e_fr_energy">   -638.00723635 </i>
    <i name="e_wo_entrp">   -637.74108180 </i>
    <i name="e_0_energy">   -637.87415908 </i>
   </energy>
  </scstep>
  <scstep>
   <time name="diag">    1.64    1.65</time>
   <time name="diis">   19.23   19.24</time>
   <time name="orth">    0.38    0.38</time>
   <time name="total">   21.55   21.57</time>
   <energy>
    <i name="e_fr_energy">   -638.00774444 </i>
    <i name="e_wo_entrp">   -637.74200097 </i>
    <i name="e_0_energy">   -637.87487271 </i>
   </energy>
  </scstep>
  <scstep>
   <time name="diag">    1.64    1.64</time>
   <time name="diis">   18.00   18.02</time>
   <time name="orth">    0.38    0.38</time>
   <time name="total">   20.31   20.33</time>
   <energy>
    <i name="e_fr_energy">   -638.00679330 </i>
    <i name="e_wo_entrp">   -637.74052150 </i>
    <i name="e_0_energy">   -637.87365740 </i>
   </energy>
  </scstep>
  <scstep>
   <time name="diag">    1.62    1.62</time>
   <time name="diis">   16.74   16.84</time>
   <time name="orth">    0.38    0.38</time>
   <time name="total">   19.03   19.14</time>
   <energy>
    <i name="e_fr_energy">   -638.00698578 </i>
    <i name="e_wo_entrp">   -637.74082887 </i>
    <i name="e_0_energy">   -637.87390733 </i>
   </energy>
  </scstep>
  <scstep>
   <time name="diag">    1.64    1.67</time>
   <time name="diis">   14.29   14.34</time>
   <time name="orth">    0.38    0.38</time>
   <time name="total">   16.60   16.68</time>
   <energy>
    <i name="e_fr_energy">   -638.00689750 </i>
    <i name="e_wo_entrp">   -637.74069171 </i>
    <i name="e_0_energy">   -637.87379460 </i>
   </energy>
  </scstep>
  <scstep>
   <time name="diag">    1.63    1.63</time>
   <time name="diis">   12.96   13.02</time>
   <time name="orth">    0.38    0.38</time>
   <time name="total">   15.26   15.33</time>
   <energy>
    <i name="e_fr_energy">   -638.00690924 </i>
    <i name="e_wo_entrp">   -637.74067492 </i>
    <i name="e_0_energy">   -637.87379208 </i>
   </energy>
  </scstep>
  <scstep>
   <time name="diag">    1.64    1.64</time>
   <time name="diis">   10.94   10.95</time>
   <time name="orth">    0.38    0.38</time>
   <time name="total">   13.24   13.26</time>
   <energy>
    <i name="e_fr_energy">   -638.00692197 </i>
    <i name="e_wo_entrp">   -637.74072142 </i>
    <i name="e_0_energy">   -637.87382169 </i>
   </energy>
  </scstep>
  <scstep>
   <time name="diag">    1.65    1.66</time>
   <time name="diis">   10.45   10.46</time>
   <time name="orth">    0.38    0.38</time>
   <time name="total">   12.51   12.54</time>
   <energy>
    <i name="alphaZ">   3788.14619682 </i>
    <i name="ewald"> -35940.35512143 </i>
    <i name="hartreedc">  -8172.76496849 </i>
    <i name="XCdc">   1263.27690906 </i>
    <i name="pawpsdc">  28915.51120646 </i>
    <i name="pawaedc"> -28796.96694796 </i>
    <i name="eentropy">     -0.26618153 </i>
    <i name="bandstr">  -5070.13877502 </i>
    <i name="atom">  43375.55075950 </i>
    <i name="e_fr_energy">   -638.00692259 </i>
    <i name="e_wo_entrp">   -637.74074106 </i>
    <i name="e_0_energy">   -637.87383183 </i>
   </energy>
  </scstep>
  <structure>
   <crystal>
    <varray name="basis" >
     <v>       8.93249989       0.00000000       0.00000000 </v>
     <v>       0.00575300       9.05559834       0.00000000 </v>
     <v>       0.03210180      -0.01574346       8.93712807 </v>
    </varray>
    <i name="volume">    722.91652451 </i>
    <varray name="rec_basis" >
     <v>       0.11195074      -0.00007112      -0.00040225 </v>
     <v>       0.00000000       0.11042893       0.00019453 </v>
     <v>       0.00000000       0.00000000       0.11189277 </v>
    </varray>
   </crystal>
   <varray name="positions" >
    <v>       0.99688001       0.99204997       0.99924002 </v>
    <v>       0.25398003       0.99714995       0.24912000 </v>
    <v>       0.24803003       0.50165000       0.24955001 </v>
    <v>       0.50501006       0.49745998       0.99834003 </v>
    <v>       0.50479003       0.24631001       0.74710002 </v>
    <v>       0.99427992       0.50449999       0.49779000 </v>
    <v>       0.49950005       0.75481999       0.74817004 </v>
    <v>       0.99437004       0.23617001       0.26379999 </v>
    <v>       0.75718000       0.74102998       0.01100000 </v>
    <v>       0.00201000       0.25541000       0.73894001 </v>
    <v>       0.75307001       0.26163001       0.50533002 </v>
    <v>       0.99514004       0.74492004       0.74511997 </v>
    <v>       0.25679999       0.49462002       0.74545002 </v>
    <v>       0.24788999       0.24839000       0.99657997 </v>
    <v>       0.50833000       0.25676999       0.25376001 </v>
    <v>       0.74879004       0.98787999       0.26967001 </v>
    <v>       0.75719000       0.25603001       0.99591997 </v>
    <v>       0.24762001       0.74973999       0.99974006 </v>
    <v>       0.25272001       0.24823001       0.50015003 </v>
    <v>       0.24457999       0.75048999       0.49983999 </v>
    <v>       0.24982001       0.24942998       0.24825000 </v>
    <v>       0.26146999       0.99984002       0.99295996 </v>
    <v>       0.00281000       0.25024000       0.00130000 </v>
    <v>       0.75313998       0.24617000       0.25492002 </v>
    <v>       0.74767001       0.99748000       0.01202000 </v>
    <v>       0.50714994       0.99977000       0.24673000 </v>
    <v>       0.99051999       0.48088002       0.24100998 </v>
    <v>       0.50519005       0.76130999       0.00855000 </v>
    <v>       0.98896989       0.00202000       0.73708999 </v>
    <v>       0.75744996       0.24437997       0.74896999 </v>
    <v>       0.73632001       0.00417000       0.51063000 </v>
    <v>       0.50563996       0.23264999       0.49544997 </v>
    <v>       0.50008998       0.00061000       0.73471998 </v>
    <v>       0.99720000       0.99771992       0.25899999 </v>
    <v>       0.50427997       0.24673000       0.00262000 </v>
    <v>       0.25133999       0.74958002       0.24910999 </v>
    <v>       0.24328000       0.50072997       0.99510994 </v>
    <v>       0.99837005       0.74313996       0.00460000 </v>
    <v>       0.75633000       0.73891003       0.25767000 </v>
    <v>       0.75839004       0.50315998       0.00288000 </v>
    <v>       0.50700002       0.50333002       0.25878999 </v>
    <v>       0.24900999       0.25315000       0.74854000 </v>
    <v>       0.24446000       0.99823996       0.50287998 </v>
    <v>       0.99804009       0.24229999       0.50128003 </v>
    <v>       0.24177002       0.75340997       0.75018002 </v>
    <v>       0.25841001       0.50062002       0.50129001 </v>
    <v>       0.99000004       0.76215003       0.49746000 </v>
    <v>       0.99203996       0.50055999       0.75138002 </v>
    <v>       0.75036005       0.74888000       0.74756004 </v>
    <v>       0.74036002       0.50197000       0.50067003 </v>
    <v>       0.50575006       0.74958002       0.49720000 </v>
    <v>       0.50501003       0.50217998       0.73912003 </v>
    <v>       0.51588997       0.01358000       0.98075008 </v>
    <v>       0.99841994       0.50976998       0.98613004 </v>
    <v>       0.50379003       0.73926997       0.25905001 </v>
    <v>       0.23780002       0.01082000       0.74607998 </v>
    <v>       0.47957999       0.98308000       0.49717999 </v>
    <v>       0.74279003       0.97869994       0.76450995 </v>
    <v>       0.99864998       0.77573999       0.26102000 </v>
    <v>       0.73551001       0.51468004       0.26666001 </v>
    <v>       0.02362000       0.99783001       0.49557002 </v>
    <v>       0.50539000       0.52833005       0.49917999 </v>
    <v>       0.73876003       0.52828003       0.73814999 </v>
    <v>       0.75400003       0.72937999       0.49116997 </v>
   </varray>
  </structure>
  <varray name="forces" >
   <v>       0.06493936      -0.70710325      -0.04288861 </v>
   <v>      -0.41152648      -1.02085836       0.07076233 </v>
   <v>       0.62825403       0.94958216      -0.14664213 </v>
   <v>      -0.14101445      -0.70753583      -0.15400692 </v>
   <v>      -0.63018516      -0.50410133       0.78148513 </v>
   <v>       0.07104432      -0.34281600       0.63365234 </v>
   <v>       0.13091505       0.49639770      -0.20485000 </v>
   <v>       1.05037977       0.60385330      -0.56885082 </v>
   <v>      -0.95886095       0.69579961      -0.32023870 </v>
   <v>       0.07135988      -0.45140247       0.24389214 </v>
   <v>      -0.55969531      -0.77377131       0.96242127 </v>
   <v>       0.68786745       0.58540404       0.37018963 </v>
   <v>       0.21218632       0.46772582       0.67791408 </v>
   <v>       0.32640692      -0.58307118       0.53515534 </v>
   <v>      -1.04085075      -0.94222480      -0.34247795 </v>
   <v>      -1.48356731       0.34911499      -0.50527587 </v>
   <v>      -0.33194779      -0.47296692      -0.73614313 </v>
   <v>       1.29905743       0.79974923       0.27237519 </v>
   <v>       0.79246604       0.08784307      -0.45673643 </v>
   <v>       0.76437951      -0.19320304      -0.32868975 </v>
   <v>      -0.07753741       0.09791838       0.14269225 </v>
   <v>      -0.47591002       0.13841015       0.31919650 </v>
   <v>      -0.13730040      -0.48817982       0.07841319 </v>
   <v>       0.03566005      -0.18530216       0.00830911 </v>
   <v>       0.26293984      -0.24737615      -0.95709703 </v>
   <v>      -1.10023547       0.00885556       0.40811507 </v>
   <v>       0.81203548      -0.27013700       0.70814987 </v>
   <v>       0.17983684      -0.52211791      -0.57905107 </v>
   <v>      -0.11362349       0.10009294       1.18751388 </v>
   <v>      -0.72088876      -0.05715925      -0.08069743 </v>
   <v>       0.07426155       0.22504559      -0.16813469 </v>
   <v>      -0.01226800       0.06903522       0.78680484 </v>
   <v>       0.65419796      -0.11115738       0.57705240 </v>
   <v>       0.99483075       0.70667816      -1.63018421 </v>
   <v>       0.01647254       0.32327700      -1.19893205 </v>
   <v>       0.25823302      -0.15346401       0.14401888 </v>
   <v>       0.54224132      -0.13311442       0.77109868 </v>
   <v>      -0.17820866       0.40423780      -0.23796732 </v>
   <v>      -0.83215909       0.72748596      -1.03725227 </v>
   <v>      -0.57296049       0.17180247      -0.00751998 </v>
   <v>      -1.73612435       0.78085795      -1.48925885 </v>
   <v>       0.62936168      -0.53822741      -0.02245641 </v>
   <v>       1.77876304      -0.07513864      -0.10416737 </v>
   <v>      -0.07159543       1.22623472      -0.13985960 </v>
   <v>       0.73878123      -0.05642852      -0.02894103 </v>
   <v>      -1.01476048      -0.06718381      -0.95429624 </v>
   <v>       0.69149175      -1.38169095       0.67954661 </v>
   <v>       0.43957787       0.05059493      -0.35012328 </v>
   <v>      -1.17911934       1.68979607       0.52996430 </v>
   <v>       1.91985661      -0.90355322       0.34423262 </v>
   <v>      -0.58353340       1.39193637       0.24791420 </v>
   <v>      -0.58748372      -0.19114206       1.45211443 </v>
   <v>       0.10396950       0.58075790      -0.98133919 </v>
   <v>       0.25478284       0.85068678      -0.65683606 </v>
   <v>       0.02979237      -0.65221951      -0.15107225 </v>
   <v>      -0.09053390       0.02290678       0.34348377 </v>
   <v>      -0.64765160      -0.30550693       0.54463296 </v>
   <v>      -0.88290181      -0.86439539       0.45611086 </v>
   <v>       0.91073452      -0.13628027      -0.80655514 </v>
   <v>       0.29579020      -0.34757828      -1.11149632 </v>
   <v>      -0.06779818       0.29049419       0.61536603 </v>
   <v>      -1.01372211      -0.20853021       0.02121870 </v>
   <v>      -0.22317741      -1.09467663       1.11510472 </v>
   <v>       0.15427468       0.79703956       0.47113681 </v>
  </varray>
  <varray name="stress" >
   <v>    -187.11433837       1.36702427      -2.16633979 </v>
   <v>       1.36702329    -198.98243836       1.32630758 </v>
   <v>      -2.16634274       1.32630862    -179.05009527 </v>
  </varray>
  <energy>
   <i name="e_fr_energy">   -638.00692259 </i>
   <i name="e_wo_entrp">   -637.87383183 </i>
   <i name="e_0_energy">     -0.26618153 </i>
  </energy>
  <time name="totalsc">  684.62  686.65</time>
 </calculation>
 <calculation>
  <scstep>
   <time name="dav">   27.95   27.97</time>
   <time name="total">   28.23   28.26</time>
   <energy>
    <i name="alphaZ">   4620.67874964 </i>
    <i name="ewald"> -38172.83806248 </i>
    <i name="hartreedc">  -8956.40789991 </i>
    <i name="XCdc">   1385.23437382 </i>
    <i name="pawpsdc">  28915.39497998 </i>
    <i name="pawaedc"> -28796.84768637 </i>
    <i name="eentropy">     -0.08334799 </i>
    <i name="bandstr">  -3147.55743765 </i>
    <i name="atom">  43375.55075950 </i>
    <i name="e_fr_energy">   -776.87557146 </i>
    <i name="e_wo_entrp">   -776.79222347 </i>
    <i name="e_0_energy">   -776.83389747 </i>
   </energy>
  </scstep>
  <scstep>
   <time name="diag">    1.65    1.65</time>
   <time name="diis">   15.30   15.34</time>
   <time name="orth">    0.38    0.38</time>
   <time name="total">   17.62   17.65</time>
   <energy>
    <i name="e_fr_energy">   -868.40336525 </i>
    <i name="e_wo_entrp">   -868.26381809 </i>
    <i name="e_0_energy">   -868.33359167 </i>
   </energy>
  </scstep>
  <scstep>
   <time name="diag">    1.64    1.65</time>
   <time name="diis">   17.22   17.26</time>
   <time name="orth">    0.37    0.38</time>
   <time name="total">   19.52   19.56</time>
   <energy>
    <i name="e_fr_energy">   -671.70543660 </i>
    <i name="e_wo_entrp">   -671.58839967 </i>
    <i name="e_0_energy">   -671.64691814 </i>
   </energy>
  </scstep>
  <scstep>
   <time name="diag">    1.64    1.64</time>
   <time name="diis">   18.35   18.37</time>
   <time name="orth">    0.39    0.39</time>
   <time name="total">   20.68   20.69</time>
   <energy>
    <i name="e_fr_energy">   -654.16843378 </i>
    <i name="e_wo_entrp">   -654.03158329 </i>
    <i name="e_0_energy">   -654.10000854 </i>
   </energy>
  </scstep>
  <scstep>
   <time name="diag">    1.62    1.62</time>
   <time name="diis">   16.98   17.02</time>
   <time name="orth">    0.38    0.38</time>
   <time name="total">   19.28   19.32</time>
   <energy>
    <i name="e_fr_energy">   -655.55567758 </i>
    <i name="e_wo_entrp">   -655.41342185 </i>
    <i name="e_0_energy">   -655.48454972 </i>
   </energy>
  </scstep>
  <scstep>
   <time name="diag">    1.65    1.65</time>
   <time name="diis">   16.68   16.70</time>
   <time name="orth">    0.38    0.38</time>
   <time name="total">   19.01   19.04</time>
   <energy>
    <i name="e_fr_energy">   -637.70822799 </i>
    <i name="e_wo_entrp">   -637.53499340 </i>
    <i name="e_0_energy">   -637.62161069 </i>
   </energy>
  </scstep>
  <scstep>
   <time name="diag">    1.64    1.66</time>
   <time name="diis">   16.99   17.01</time>
   <time name="orth">    0.38    0.38</time>
   <time name="total">   19.31   19.35</time>
   <energy>
    <i name="e_fr_energy">   -638.07648093 </i>
    <i name="e_wo_entrp">   -637.92696022 </i>
    <i name="e_0_energy">   -638.00172057 </i>
   </energy>
  </scstep>
  <scstep>
   <time name="diag">    1.63    1.63</time>
   <time name="diis">   17.75   17.81</time>
   <time name="orth">    0.39    0.39</time>
   <time name="total">   20.06   20.12</time>
   <energy>
    <i name="e_fr_energy">   -635.48232887 </i>
    <i name="e_wo_entrp">   -635.30178880 </i>
    <i name="e_0_energy">   -635.39205884 </i>
   </energy>
  </scstep>
  <scstep>
   <time name="diag">    1.66    1.66</time>
   <time name="diis">   18.62   18.68</time>
   <time name="orth">    0.38    0.41</time>
   <time name="total">   20.94   21.04</time>
   <energy>
    <i name="e_fr_energy">   -635.24171453 </i>
    <i name="e_wo_entrp">   -635.06922288 </i>
    <i name="e_0_energy">   -635.15546871 </i>
   </energy>
  </scstep>
  <scstep>
   <time name="diag">    1.64    1.64</time>
   <time name="diis">   17.92   17.98</time>
   <time name="orth">    0.38    0.38</time>
   <time name="total">   20.23   20.30</time>
   <energy>
    <i name="e_fr_energy">   -635.08347234 </i>
    <i name="e_wo_entrp">   -634.89620590 </i>
    <i name="e_0_energy">   -634.98983912 </i>
   </energy>
  </scstep>
  <scstep>
   <time name="diag">    1.64    1.64</time>
   <time name="diis">   16.96   17.04</time>
   <time name="orth">    0.40    0.41</time>
   <time name="total">   19.29   19.38</time>
   <energy>
    <i name="e_fr_energy">   -634.95429273 </i>
    <i name="e_wo_entrp">   -634.77950991 </i>
    <i name="e_0_energy">   -634.86690132 </i>
   </energy>
  </scstep>
  <scstep>
   <time name="diag">    1.63    1.63</time>
   <time name="diis">   17.55   17.58</time>
   <time name="orth">    0.38    0.38</time>
   <time name="total">   19.88   19.92</time>
   <energy>
    <i name="e_fr_energy">   -635.00562792 </i>
    <i name="e_wo_entrp">   -634.82756131 </i>
    <i name="e_0_energy">   -634.91659462 </i>
   </energy>
  </scstep>
  <scstep>
   <time name="diag">    1.63    1.63</time>
   <time name="diis">   16.34   16.34</time>
   <time name="orth">    0.38    0.38</time>
   <time name="total">   18.64   18.65</time>
   <energy>
    <i name="e_fr_energy">   -634.92096530 </i>
    <i name="e_wo_entrp">   -634.73780442 </i>
    <i name="e_0_energy">   -634.82938486 </i>
   </energy>
  </scstep>
  <scstep>
   <time name="diag">    1.62    1.62</time>
   <time name="diis">   18.44   18.46</time>
   <time name="orth">    0.38    0.38</time>
   <time name="total">   20.74   20.76</time>
   <energy>
    <i name="e_fr_energy">   -634.91767871 </i>
    <i name="e_wo_entrp">   -634.73603743 </i>
    <i name="e_0_energy">   -634.82685807 </i>
   </energy>
  </scstep>
  <scstep>
   <time name="diag">    1.64    1.64</time>
   <time name="diis">   18.81   18.88</time>
   <time name="orth">    0.38    0.38</time>
   <time name="total">   21.12   21.19</time>
   <energy>
    <i name="e_fr_energy">   -634.90587797 </i>
    <i name="e_wo_entrp">   -634.72376459 </i>
    <i name="e_0_energy">   -634.81482128 </i>
   </energy>
  </scstep>
  <scstep>
   <time name="diag">    1.64    1.64</time>
   <time name="diis">   19.39   19.41</time>
   <time name="orth">    0.38    0.38</time>
   <time name="total">   21.69   21.71</time>
   <energy>
    <i name="e_fr_energy">   -634.90852879 </i>
    <i name="e_wo_entrp">   -634.72641324 </i>
    <i name="e_0_energy">   -634.81747102 </i>
   </energy>
  </scstep>
  <scstep>
   <time name="diag">    1.63    1.64</time>
   <time name="diis">   17.71   17.74</time>
   <time name="orth">    0.38    0.38</time>
   <time name="total">   20.01   20.05</time>
   <energy>
    <i name="e_fr_energy">   -634.90543943 </i>
    <i name="e_wo_entrp">   -634.72352539 </i>
    <i name="e_0_energy">   -634.81448241 </i>
   </energy>
  </scstep>
  <scstep>
   <time name="diag">    1.69    1.70</time>
   <time name="diis">   16.92   16.98</time>
   <time name="orth">    0.38    0.38</time>
   <time name="total">   19.29   19.36</time>
   <energy>
    <i name="e_fr_energy">   -634.90552905 </i>
    <i name="e_wo_entrp">   -634.72382312 </i>
    <i name="e_0_energy">   -634.81467609 </i>
   </energy>
  </scstep>
  <scstep>
   <time name="diag">    1.64    1.64</time>
   <time name="diis">   17.34   17.38</time>
   <time name="orth">    0.39    0.39</time>
   <time name="total">   19.67   19.72</time>
   <energy>
    <i name="e_fr_energy">   -634.90556479 </i>
    <i name="e_wo_entrp">   -634.72377044 </i>
    <i name="e_0_energy">   -634.81466762 </i>
   </energy>
  </scstep>
  <scstep>
   <time name="diag">    1.63    1.63</time>
   <time name="diis">   16.35   16.37</time>
   <time name="orth">    0.39    0.39</time>
   <time name="total">   18.65   18.67</time>
   <energy>
    <i name="e_fr_energy">   -634.90517236 </i>
    <i name="e_wo_entrp">   -634.72337360 </i>
    <i name="e_0_energy">   -634.81427298 </i>
   </energy>
  </scstep>
  <scstep>
   <time name="diag">    1.62    1.62</time>
   <time name="diis">   14.34   14.38</time>
   <time name="orth">    0.38    0.38</time>
   <time name="total">   16.64   16.68</time>
   <energy>
    <i name="e_fr_energy">   -634.90517441 </i>
    <i name="e_wo_entrp">   -634.72340693 </i>
    <i name="e_0_energy">   -634.81429067 </i>
   </energy>
  </scstep>
  <scstep>
   <time name="diag">    1.64    1.64</time>
   <time name="diis">   12.16   12.18</time>
   <time name="orth">    0.39    0.39</time>
   <time name="total">   14.47   14.50</time>
   <energy>
    <i name="e_fr_energy">   -634.90518408 </i>
    <i name="e_wo_entrp">   -634.72341336 </i>
    <i name="e_0_energy">   -634.81429872 </i>
   </energy>
  </scstep>
  <scstep>
   <time name="diag">    1.64    1.64</time>
   <time name="diis">   10.52   10.55</time>
   <time name="orth">    0.38    0.38</time>
   <time name="total">   12.84   12.87</time>
   <energy>
    <i name="e_fr_energy">   -634.90516795 </i>
    <i name="e_wo_entrp">   -634.72343757 </i>
    <i name="e_0_energy">   -634.81430276 </i>
   </energy>
  </scstep>
  <scstep>
   <time name="diag">    1.66    1.66</time>
   <time name="diis">   10.00   10.04</time>
   <time name="orth">    0.39    0.39</time>
   <time name="total">   12.07   12.12</time>
   <energy>
    <i name="alphaZ">   4620.67874964 </i>
    <i name="ewald"> -38172.83806248 </i>
    <i name="hartreedc">  -7623.01661749 </i>
    <i name="XCdc">   1311.74825958 </i>
    <i name="pawpsdc">  31284.66420467 </i>
    <i name="pawaedc"> -31183.87807741 </i>
    <i name="eentropy">     -0.18174988 </i>
    <i name="bandstr">  -4247.63263623 </i>
    <i name="atom">  43375.55075950 </i>
    <i name="e_fr_energy">   -634.90517010 </i>
    <i name="e_wo_entrp">   -634.72342022 </i>
    <i name="e_0_energy">   -634.81429516 </i>
   </energy>
  </scstep>
  <structure>
   <crystal>
    <varray name="basis" >
     <v>       8.36402815       0.00415315      -0.00658155 </v>
     <v>       0.00959726       8.44274184       0.00408074 </v>
     <v>       0.02346652      -0.01063152       8.39284370 </v>
    </varray>
    <i name="volume">    592.66476449 </i>
    <varray name="rec_basis" >
     <v>       0.11955942      -0.00013575      -0.00033446 </v>
     <v>      -0.00005870       0.11844493       0.00015020 </v>
     <v>       0.00009379      -0.00005770       0.11914879 </v>
    </varray>
   </crystal>
   <varray name="positions" >
    <v>       0.99723399       0.98828255       0.99900850 </v>
    <v>       0.25175959       0.99171211       0.24950197 </v>
    <v>       0.25142269       0.50670742       0.24875843 </v>
    <v>       0.50425389       0.49368922       0.99750870 </v>
    <v>       0.50137309       0.24363180       0.75131847 </v>
    <v>       0.99465250       0.50267962       0.50121046 </v>
    <v>       0.50020937       0.75746257       0.74706426 </v>
    <v>       0.00005190       0.23938163       0.26072933 </v>
    <v>       0.75200521       0.74473376       0.00927135 </v>
    <v>       0.00239222       0.25300749       0.74025654 </v>
    <v>       0.75003119       0.25751687       0.51052517 </v>
    <v>       0.99884589       0.74804218       0.74711826 </v>
    <v>       0.25793121       0.49711814       0.74910941 </v>
    <v>       0.24964446       0.24528877       0.99946874 </v>
    <v>       0.50271845       0.25174719       0.25191131 </v>
    <v>       0.74078619       0.98973512       0.26694253 </v>
    <v>       0.75541312       0.25350342       0.99194627 </v>
    <v>       0.25462793       0.75400312       0.00121034 </v>
    <v>       0.25700852       0.24869369       0.49768457 </v>
    <v>       0.24871529       0.74945763       0.49806572 </v>
    <v>       0.24939815       0.24995297       0.24902025 </v>
    <v>       0.25889302       0.00058038       0.99468299 </v>
    <v>       0.00206862       0.24764002       0.00172327 </v>
    <v>       0.75333305       0.24518290       0.25496487 </v>
    <v>       0.74910952       0.99615315       0.00685359 </v>
    <v>       0.50119984       0.99982100       0.24893301 </v>
    <v>       0.99489282       0.47944755       0.24483258 </v>
    <v>       0.50617434       0.75852303       0.00542428 </v>
    <v>       0.98833284       0.00256438       0.74350020 </v>
    <v>       0.75355834       0.24407471       0.74853438 </v>
    <v>       0.73672357       0.00536733       0.50972241 </v>
    <v>       0.50555819       0.23302515       0.49969715 </v>
    <v>       0.50361236       0.00002324       0.73783491 </v>
    <v>       0.00260209       0.00146937       0.25020025 </v>
    <v>       0.50439109       0.24844097      -0.00385184 </v>
    <v>       0.25273238       0.74876381       0.24988741 </v>
    <v>       0.24619403       0.50002806       0.99927233 </v>
    <v>       0.99741081       0.74529126       0.00331545 </v>
    <v>       0.75185331       0.74277589       0.25207090 </v>
    <v>       0.75529515       0.50407516       0.00283941 </v>
    <v>       0.49764978       0.50747597       0.25075096 </v>
    <v>       0.25241133       0.25028245       0.74841878 </v>
    <v>       0.25406903       0.99783869       0.50231768 </v>
    <v>       0.99765192       0.24883131       0.50052507 </v>
    <v>       0.24576078       0.75310908       0.75002379 </v>
    <v>       0.25294824       0.50025315       0.49613871 </v>
    <v>       0.99372620       0.75479560       0.50112819 </v>
    <v>       0.99442066       0.50082625       0.74949005 </v>
    <v>       0.74397578       0.75788717       0.75042079 </v>
    <v>       0.75072520       0.49715966       0.50252820 </v>
    <v>       0.50258892       0.75699773       0.49853824 </v>
    <v>       0.50180962       0.50117533       0.74695855 </v>
    <v>       0.51646854       0.01666471       0.97545280 </v>
    <v>       0.99980580       0.51429575       0.98258443 </v>
    <v>       0.50395610       0.73579392       0.25823452 </v>
    <v>       0.23730432       0.01094526       0.74793411 </v>
    <v>       0.47607264       0.98145756       0.50011992 </v>
    <v>       0.73801577       0.97409925       0.76697204 </v>
    <v>       0.00358479       0.77500641       0.25666621 </v>
    <v>       0.73713027       0.51281792       0.26066015 </v>
    <v>       0.02324090       0.99938336       0.49889177 </v>
    <v>       0.49991539       0.52721933       0.49929453 </v>
    <v>       0.73753681       0.52245873       0.74416933 </v>
    <v>       0.75482136       0.73363055       0.49371317 </v>
   </varray>
  </structure>
  <varray name="forces" >
   <v>       0.58186132      -0.16420321      -0.42576834 </v>
   <v>      -0.22726213      -0.43042395      -0.11831035 </v>
   <v>       0.53622420       0.62978633      -0.45883142 </v>
   <v>      -0.48033965      -0.47430561      -0.03096715 </v>
   <v>      -0.83902606      -0.34340101       0.53964612 </v>
   <v>       0.97334235      -0.52170664       0.53162937 </v>
   <v>      -0.29193889       0.53037311      -0.03447897 </v>
   <v>       0.59171323       0.82583764      -1.48890158 </v>
   <v>      -1.19560721       1.25399252      -0.95405833 </v>
   <v>       0.77194233      -0.77253512       1.51435674 </v>
   <v>      -0.59058190      -1.16852250      -0.29988044 </v>
   <v>      -0.04516872       1.02417744       0.96403161 </v>
   <v>      -0.82757889       0.29438501       0.50774095 </v>
   <v>       0.02220040      -0.11934589       0.05788805 </v>
   <v>      -0.63783976       0.01028318      -0.65332014 </v>
   <v>       0.51465440       0.81474949      -1.18422157 </v>
   <v>      -0.08673082      -0.61195023       0.45356189 </v>
   <v>       1.08091167       0.30280772      -0.03273394 </v>
   <v>       0.07349705       0.29615886       0.19540758 </v>
   <v>      -0.11066172      -0.03811914       0.16223941 </v>
   <v>       0.11908266       0.12143315      -0.11003341 </v>
   <v>      -0.10110868      -0.09854159       0.28604217 </v>
   <v>       0.04472316      -0.12524511       0.13306486 </v>
   <v>      -0.32496613       0.21431607      -0.32515771 </v>
   <v>       0.29226917       0.16044682      -0.88430390 </v>
   <v>      -2.04704540      -0.76862729      -0.24295987 </v>
   <v>       0.82666222       1.75697640       0.19216650 </v>
   <v>      -0.28480258      -0.16686763      -0.51382430 </v>
   <v>      -0.32132017      -0.03507898       1.52488973 </v>
   <v>      -1.25470837      -0.07250047       0.24754901 </v>
   <v>       0.38540665      -0.59689205       1.18170274 </v>
   <v>      -0.08215239       0.39136479       1.07252665 </v>
   <v>       0.07716565       0.01614117       0.50160267 </v>
   <v>       0.37974867       0.28048055      -1.33756097 </v>
   <v>      -0.34138075       0.52786155      -0.82296561 </v>
   <v>       1.06351850      -0.16936533      -0.18987908 </v>
   <v>       0.28166107       0.05366362       1.23745168 </v>
   <v>       0.91968329       0.37407424       0.15246666 </v>
   <v>      -0.74896878       0.83810980       0.01739597 </v>
   <v>      -0.22225240      -0.68858948       0.13666467 </v>
   <v>      -1.77366137       0.21081780      -1.41743599 </v>
   <v>       1.15186925      -0.87074825       0.18151989 </v>
   <v>       1.15240820       0.06122883       0.15630167 </v>
   <v>       0.52299500       1.26872072      -0.13199494 </v>
   <v>       1.49258677       0.83026914       0.12964055 </v>
   <v>      -1.26961046      -0.17803760      -0.86645706 </v>
   <v>       0.79650208      -1.34414066      -0.13624757 </v>
   <v>       0.41250689       0.02277219      -0.25991232 </v>
   <v>      -0.67197885       0.33055985      -0.19006081 </v>
   <v>       0.83111884      -0.00627503      -0.11028436 </v>
   <v>       0.13561109       1.63033534       0.10401762 </v>
   <v>      -0.27852228      -0.30683274       1.21609258 </v>
   <v>      -0.57684693      -0.10275246      -0.61359175 </v>
   <v>       0.30758827       0.13378733      -0.15764013 </v>
   <v>      -0.42768850       0.19462803      -0.51251049 </v>
   <v>       0.11735987      -0.63117030       0.52201350 </v>
   <v>       0.81969310       0.63391058       0.46846799 </v>
   <v>      -0.75241202       1.31901133       0.43249870 </v>
   <v>       0.29722063      -2.51455388      -1.17639790 </v>
   <v>       0.43706589      -2.05924621      -1.70494714 </v>
   <v>      -1.54761129       0.72790927       0.06967701 </v>
   <v>       0.06641207      -2.63818622      -0.35079192 </v>
   <v>       0.76693150      -1.61516003       1.98880553 </v>
   <v>      -0.48436433       1.55195472       0.85736942 </v>
  </varray>
  <varray name="stress" >
   <v>     477.03140908      -4.44890234       1.12802277 </v>
   <v>      -4.44890350     461.81066919      -0.37706875 </v>
   <v>       1.12802218      -0.37706953     462.76906015 </v>
  </varray>
  <energy>
   <i name="e_fr_energy">   -634.90517010 </i>
   <i name="e_wo_entrp">   -634.81429516 </i>
   <i name="e_0_energy">     -0.18174988 </i>
  </energy>
  <time name="totalsc">  503.40  504.56</time>
 </calculation>
 <calculation>
  <scstep>
   <time name="dav">   26.18   26.22</time>
   <time name="total">   26.48   26.53</time>
   <energy>
    <i name="alphaZ">   4140.60484339 </i>
    <i name="ewald"> -36941.04094459 </i>
    <i name="hartreedc">  -7210.72856728 </i>
    <i name="XCdc">   1246.61468575 </i>
    <i name="pawpsdc">  31284.59746273 </i>
    <i name="pawaedc"> -31183.80408282 </i>
    <i name="eentropy">     -0.23710300 </i>
    <i name="bandstr">  -5422.07722676 </i>
    <i name="atom">  43375.55075950 </i>
    <i name="e_fr_energy">   -710.52017307 </i>
    <i name="e_wo_entrp">   -710.28307007 </i>
    <i name="e_0_energy">   -710.40162157 </i>
   </energy>
  </scstep>
  <scstep>
   <time name="diag">    1.64    1.65</time>
   <time name="diis">   18.52   18.56</time>
   <time name="orth">    0.39    0.39</time>
   <time name="total">   20.82   20.87</time>
   <energy>
    <i name="e_fr_energy">   -983.10060270 </i>
    <i name="e_wo_entrp">   -983.07382001 </i>
    <i name="e_0_energy">   -983.08721136 </i>
   </energy>
  </scstep>
  <scstep>
   <time name="diag">    1.63    1.63</time>
   <time name="diis">   16.59   16.61</time>
   <time name="orth">    0.38    0.38</time>
   <time name="total">   18.89   18.91</time>
   <energy>
    <i name="e_fr_energy">   -686.88928272 </i>
    <i name="e_wo_entrp">   -686.74886966 </i>
    <i name="e_0_energy">   -686.81907619 </i>
   </energy>
  </scstep>
  <scstep>
   <time name="diag">    1.64    1.64</time>
   <time name="diis">   16.90   16.93</time>
   <time name="orth">    0.39    0.39</time>
   <time name="total">   19.22   19.25</time>
   <energy>
    <i name="e_fr_energy">   -660.10866896 </i>
    <i name="e_wo_entrp">   -659.94181288 </i>
    <i name="e_0_energy">   -660.02524092 </i>
   </energy>
  </scstep>
  <scstep>
   <time name="diag">    1.67    1.70</time>
   <time name="diis">   16.98   16.99</time>
   <time name="orth">    0.39    0.39</time>
   <time name="total">   19.32   19.36</time>
   <energy>
    <i name="e_fr_energy">   -650.08195700 </i>
    <i name="e_wo_entrp">   -649.87730273 </i>
    <i name="e_0_energy">   -649.97962986 </i>
   </energy>
  </scstep>
  <scstep>
   <time name="diag">    1.63    1.63</time>
   <time name="diis">   16.87   16.88</time>
   <time name="orth">    0.38    0.38</time>
   <time name="total">   19.15   19.17</time>
   <energy>
    <i name="e_fr_energy">   -646.73651774 </i>
    <i name="e_wo_entrp">   -646.52607673 </i>
    <i name="e_0_energy">   -646.63129723 </i>
   </energy>
  </scstep>
  <scstep>
   <time name="diag">    1.67    1.67</time>
   <time name="diis">   17.84   17.86</time>
   <time name="orth">    0.39    0.39</time>
   <time name="total">   20.18   20.21</time>
   <energy>
    <i name="e_fr_energy">   -645.89175868 </i>
    <i name="e_wo_entrp">   -645.68704030 </i>
    <i name="e_0_energy">   -645.78939949 </i>
   </energy>
  </scstep>
  <scstep>
   <time name="diag">    1.66    1.69</time>
   <time name="diis">   16.37   16.39</time>
   <time name="orth">    0.38    0.38</time>
   <time name="total">   18.71   18.76</time>
   <energy>
    <i name="e_fr_energy">   -647.10707924 </i>
    <i name="e_wo_entrp">   -646.93426041 </i>
    <i name="e_0_energy">   -647.02066982 </i>
   </energy>
  </scstep>
  <scstep>
   <time name="diag">    1.63    1.64</time>
   <time name="diis">   17.56   17.59</time>
   <time name="orth">    0.38    0.38</time>
   <time name="total">   19.85   19.89</time>
   <energy>
    <i name="e_fr_energy">   -644.97715713 </i>
    <i name="e_wo_entrp">   -644.79337361 </i>
    <i name="e_0_energy">   -644.88526537 </i>
   </energy>
  </scstep>
  <scstep>
   <time name="diag">    1.64    1.65</time>
   <time name="diis">   16.58   16.61</time>
   <time name="orth">    0.38    0.38</time>
   <time name="total">   18.89   18.94</time>
   <energy>
    <i name="e_fr_energy">   -643.27693751 </i>
    <i name="e_wo_entrp">   -643.07064724 </i>
    <i name="e_0_energy">   -643.17379238 </i>
   </energy>
  </scstep>
  <scstep>
   <time name="diag">    1.63    1.63</time>
   <time name="diis">   18.02   18.11</time>
   <time name="orth">    0.38    0.38</time>
   <time name="total">   20.32   20.41</time>
   <energy>
    <i name="e_fr_energy">   -643.87206161 </i>
    <i name="e_wo_entrp">   -643.62702594 </i>
    <i name="e_0_energy">   -643.74954378 </i>
   </energy>
  </scstep>
  <scstep>
   <time name="diag">    1.64    1.64</time>
   <time name="diis">   16.10   16.10</time>
   <time name="orth">    0.38    0.38</time>
   <time name="total">   18.41   18.42</time>
   <energy>
    <i name="e_fr_energy">   -643.11551045 </i>
    <i name="e_wo_entrp">   -642.89352841 </i>
    <i name="e_0_energy">   -643.00451943 </i>
   </energy>
  </scstep>
  <scstep>
   <time name="diag">    1.66    1.66</time>
   <time name="diis">   17.58   17.64</time>
   <time name="orth">    0.38    0.38</time>
   <time name="total">   19.91   19.97</time>
   <energy>
    <i name="e_fr_energy">   -642.96469858 </i>
    <i name="e_wo_entrp">   -642.74639196 </i>
    <i name="e_0_energy">   -642.85554527 </i>
   </energy>
  </scstep>
  <scstep>
   <time name="diag">    1.63    1.63</time>
   <time name="diis">   17.90   17.91</time>
   <time name="orth">    0.38    0.38</time>
   <time name="total">   20.20   20.22</time>
   <energy>
    <i name="e_fr_energy">   -643.07779547 </i>
    <i name="e_wo_entrp">   -642.86661284 </i>
    <i name="e_0_energy">   -642.97220416 </i>
   </energy>
  </scstep>
  <scstep>
   <time name="diag">    1.64    1.64</time>
   <time name="diis">   17.14   17.15</time>
   <time name="orth">    0.38    0.38</time>
   <time name="total">   19.44   19.45</time>
   <energy>
    <i name="e_fr_energy">   -642.98380125 </i>
    <i name="e_wo_entrp">   -642.76309404 </i>
    <i name="e_0_energy">   -642.87344765 </i>
   </energy>
  </scstep>
  <scstep>
   <time name="diag">    1.65    1.65</time>
   <time name="diis">   16.76   16.78</time>
   <time name="orth">    0.38    0.38</time>
   <time name="total">   19.09   19.11</time>
   <energy>
    <i name="e_fr_energy">   -642.94966664 </i>
    <i name="e_wo_entrp">   -642.72802880 </i>
    <i name="e_0_energy">   -642.83884772 </i>
   </energy>
  </scstep>
  <scstep>
   <time name="diag">    1.63    1.63</time>
   <time name="diis">   18.83   18.89</time>
   <time name="orth">    0.39    0.39</time>
   <time name="total">   21.13   21.20</time>
   <energy>
    <i name="e_fr_energy">   -642.96145068 </i>
    <i name="e_wo_entrp">   -642.74329014 </i>
    <i name="e_0_energy">   -642.85237041 </i>
   </energy>
  </scstep>
  <scstep>
   <time name="diag">    1.64    1.64</time>
   <time name="diis">   17.89   17.90</time>
   <time name="orth">    0.39    0.39</time>
   <time name="total">   20.21   20.22</time>
   <energy>
    <i name="e_fr_energy">   -642.94065400 </i>
    <i name="e_wo_entrp">   -642.72075016 </i>
    <i name="e_0_energy">   -642.83070208 </i>
   </energy>
  </scstep>
  <scstep>
   <time name="diag">    1.65    1.65</time>
   <time name="diis">   17.70   17.73</time>
   <time name="orth">    0.38    0.38</time>
   <time name="total">   20.03   20.06</time>
   <energy>
    <i name="e_fr_energy">   -642.92312260 </i>
    <i name="e_wo_entrp">   -642.69877254 </i>
    <i name="e_0_energy">   -642.81094757 </i>
   </energy>
  </scstep>
  <scstep>
   <time name="diag">    1.63    1.63</time>
   <time name="diis">   18.42   18.48</time>
   <time name="orth">    0.38    0.38</time>
   <time name="total">   20.71   20.77</time>
   <energy>
    <i name="e_fr_energy">   -642.92514116 </i>
    <i name="e_wo_entrp">   -642.70016162 </i>
    <i name="e_0_energy">   -642.81265139 </i>
   </energy>
  </scstep>
  <scstep>
   <time name="diag">    1.64    1.64</time>
   <time name="diis">   18.16   18.19</time>
   <time name="orth">    0.38    0.38</time>
[...]
      </set>
     </set>
    </set>
   </array>
  </eigenvalues>
  <separator name="orbital magnetization" >
   <v name="MAGDIPOLOUT">      0.00000000      0.00000000      0.00000000</v>
  </separator>
  <dos>
   <i name="efermi">      7.82226844 </i>
   <total>
    <array>
     <dimension dim="1">gridpoints</dimension>
     <dimension dim="2">spin</dimension>
     <field>energy</field>
     <field>total</field>
     <field>integrated</field>
     <set>
      <set comment="spin 1">
       <r>   -60.5558     0.0000     0.0000 </r>
       <r>   -60.3095     0.0000     0.0000 </r>
       <r>   -60.0631     0.0000     0.0000 </r>
       <r>   -59.8168     0.0000     0.0000 </r>
       <r>   -59.5704     0.0000     0.0000 </r>
       <r>   -59.3241     0.0000     0.0000 </r>
       <r>   -59.0778     0.0000     0.0000 </r>
       <r>   -58.8314     0.0000     0.0000 </r>
       <r>   -58.5851     0.0000     0.0000 </r>
       <r>   -58.3387     0.0000     0.0000 </r>
       <r>   -58.0924     0.0000     0.0000 </r>
       <r>   -57.8460     0.0000     0.0000 </r>
       <r>   -57.5997     0.0000     0.0000 </r>
       <r>   -57.3534     0.1086     0.0268 </r>
       <r>   -57.1070    13.7732     3.4197 </r>
       <r>   -56.8607    40.4649    13.3880 </r>
       <r>   -56.6143     2.4844    14.0000 </r>
       <r>   -56.3680     0.0001    14.0000 </r>
       <r>   -56.1216     0.0000    14.0000 </r>
       <r>   -55.8753     0.0000    14.0000 </r>
       <r>   -55.6290     0.0000    14.0000 </r>
       <r>   -55.3826     0.0000    14.0000 </r>
       <r>   -55.1363     0.0000    14.0000 </r>
       <r>   -54.8899     0.0000    14.0000 </r>
       <r>   -54.6436     0.0000    14.0000 </r>
       <r>   -54.3972     0.0000    14.0000 </r>
       <r>   -54.1509     0.0000    14.0000 </r>
       <r>   -53.9045     0.0000    14.0000 </r>
       <r>   -53.6582     0.0000    14.0000 </r>
       <r>   -53.4119     0.0000    14.0000 </r>
       <r>   -53.1655     0.0000    14.0000 </r>
       <r>   -52.9192     0.0000    14.0000 </r>
       <r>   -52.6728     0.0000    14.0000 </r>
       <r>   -52.4265     0.0000    14.0000 </r>
       <r>   -52.1801     0.0000    14.0000 </r>
       <r>   -51.9338     0.0000    14.0000 </r>
       <r>   -51.6875     0.0000    14.0000 </r>
       <r>   -51.4411     0.0000    14.0000 </r>
       <r>   -51.1948     0.0000    14.0000 </r>
       <r>   -50.9484     0.0000    14.0000 </r>
       <r>   -50.7021     0.0000    14.0000 </r>
       <r>   -50.4557     0.0000    14.0000 </r>
       <r>   -50.2094     0.0000    14.0000 </r>
       <r>   -49.9631     0.0000    14.0000 </r>
       <r>   -49.7167     0.0000    14.0000 </r>
       <r>   -49.4704     0.0000    14.0000 </r>
       <r>   -49.2240     0.0000    14.0000 </r>
       <r>   -48.9777     0.0000    14.0000 </r>
       <r>   -48.7313     0.0000    14.0000 </r>
       <r>   -48.4850     0.0000    14.0000 </r>
       <r>   -48.2387     0.0000    14.0000 </r>
       <r>   -47.9923     0.0000    14.0000 </r>
       <r>   -47.7460     0.0000    14.0000 </r>
       <r>   -47.4996     0.0000    14.0000 </r>
       <r>   -47.2533     0.0000    14.0000 </r>
       <r>   -47.0069     0.0000    14.0000 </r>
       <r>   -46.7606     0.0000    14.0000 </r>
       <r>   -46.5142     0.0000    14.0000 </r>
       <r>   -46.2679     0.0000    14.0000 </r>
       <r>   -46.0216     0.0000    14.0000 </r>
       <r>   -45.7752     0.0000    14.0000 </r>
       <r>   -45.5289     0.0000    14.0000 </r>
       <r>   -45.2825     0.0000    14.0000 </r>
       <r>   -45.0362     0.0000    14.0000 </r>
       <r>   -44.7898     0.0000    14.0000 </r>
       <r>   -44.5435     0.0000    14.0000 </r>
       <r>   -44.2972     0.0000    14.0000 </r>
       <r>   -44.0508     0.0000    14.0000 </r>
       <r>   -43.8045     0.0000    14.0000 </r>
       <r>   -43.5581     0.0000    14.0000 </r>
       <r>   -43.3118     0.0000    14.0000 </r>
       <r>   -43.0654     0.0000    14.0000 </r>
       <r>   -42.8191     0.0000    14.0000 </r>
       <r>   -42.5728     0.0000    14.0000 </r>
       <r>   -42.3264     0.0000    14.0000 </r>
       <r>   -42.0801     0.0000    14.0000 </r>
       <r>   -41.8337     0.0000    14.0000 </r>
       <r>   -41.5874     0.0000    14.0000 </r>
       <r>   -41.3410     0.0000    14.0000 </r>
       <r>   -41.0947     0.0000    14.0000 </r>
       <r>   -40.8484     0.0000    14.0000 </r>
       <r>   -40.6020     0.0000    14.0000 </r>
       <r>   -40.3557     0.0000    14.0000 </r>
       <r>   -40.1093     0.0000    14.0000 </r>
       <r>   -39.8630     0.0000    14.0000 </r>
       <r>   -39.6166     0.0000    14.0000 </r>
       <r>   -39.3703     0.0000    14.0000 </r>
       <r>   -39.1240     0.0000    14.0000 </r>
       <r>   -38.8776     0.0000    14.0000 </r>
       <r>   -38.6313     0.0000    14.0000 </r>
       <r>   -38.3849     0.0000    14.0000 </r>
       <r>   -38.1386     0.0000    14.0000 </r>
       <r>   -37.8922     0.0000    14.0000 </r>
       <r>   -37.6459     0.0000    14.0000 </r>
       <r>   -37.3995     0.0000    14.0000 </r>
       <r>   -37.1532     0.0000    14.0000 </r>
       <r>   -36.9069     0.0000    14.0000 </r>
       <r>   -36.6605     0.0000    14.0000 </r>
       <r>   -36.4142     0.0000    14.0000 </r>
       <r>   -36.1678     0.0602    14.0148 </r>
       <r>   -35.9215    17.1911    18.2497 </r>
       <r>   -35.6751    95.4163    41.7549 </r>
       <r>   -35.4288    33.1621    49.9242 </r>
       <r>   -35.1825     0.3079    50.0000 </r>
       <r>   -34.9361     0.0000    50.0000 </r>
       <r>   -34.6898     0.0000    50.0000 </r>
       <r>   -34.4434     0.0000    50.0000 </r>
       <r>   -34.1971     0.0000    50.0000 </r>
       <r>   -33.9507     0.0000    50.0000 </r>
       <r>   -33.7044     0.0000    50.0000 </r>
       <r>   -33.4581     0.0000    50.0000 </r>
       <r>   -33.2117     0.0000    50.0000 </r>
       <r>   -32.9654     0.0000    50.0000 </r>
       <r>   -32.7190     0.0000    50.0000 </r>
       <r>   -32.4727     0.0000    50.0000 </r>
       <r>   -32.2263     0.0000    50.0000 </r>
       <r>   -31.9800     0.0000    50.0000 </r>
       <r>   -31.7337     0.0000    50.0000 </r>
       <r>   -31.4873     0.0005    50.0001 </r>
       <r>   -31.2410     4.9366    51.2162 </r>
       <r>   -30.9946    82.1472    71.4526 </r>
       <r>   -30.7483    79.4330    91.0204 </r>
       <r>   -30.5019     3.9764    92.0000 </r>
       <r>   -30.2556     0.0001    92.0000 </r>
       <r>   -30.0093     0.0000    92.0000 </r>
       <r>   -29.7629     0.0000    92.0000 </r>
       <r>   -29.5166     0.0000    92.0000 </r>
       <r>   -29.2702     0.0000    92.0000 </r>
       <r>   -29.0239     0.0000    92.0000 </r>
       <r>   -28.7775     0.0000    92.0000 </r>
       <r>   -28.5312     0.0000    92.0000 </r>
       <r>   -28.2848     0.0000    92.0000 </r>
       <r>   -28.0385     0.6825    92.1681 </r>
       <r>   -27.7922    30.9820    99.8003 </r>
       <r>   -27.5458    31.5612   107.5752 </r>
       <r>   -27.2995    53.6117   120.7821 </r>
       <r>   -27.0531    26.1102   127.2142 </r>
       <r>   -26.8068     3.1897   128.0000 </r>
       <r>   -26.5604     0.0002   128.0000 </r>
       <r>   -26.3141     0.0000   128.0000 </r>
       <r>   -26.0678     0.0000   128.0000 </r>
       <r>   -25.8214     0.0000   128.0000 </r>
       <r>   -25.5751     0.0000   128.0000 </r>
       <r>   -25.3287     0.0000   128.0000 </r>
       <r>   -25.0824     0.0000   128.0000 </r>
       <r>   -24.8360     0.0000   128.0000 </r>
       <r>   -24.5897     0.0000   128.0000 </r>
       <r>   -24.3434     0.0000   128.0000 </r>
       <r>   -24.0970     0.0000   128.0000 </r>
       <r>   -23.8507     0.0000   128.0000 </r>
       <r>   -23.6043     0.0807   128.0199 </r>
       <r>   -23.3580     8.9409   130.2224 </r>
       <r>   -23.1116    28.4010   137.2188 </r>
       <r>   -22.8653    34.0046   145.5956 </r>
       <r>   -22.6190    27.3893   152.3428 </r>
       <r>   -22.3726    43.6498   163.0956 </r>
       <r>   -22.1263    22.5705   168.6557 </r>
       <r>   -21.8799     5.4567   169.9999 </r>
       <r>   -21.6336     0.0004   170.0000 </r>
       <r>   -21.3872     0.0000   170.0000 </r>
       <r>   -21.1409     0.0000   170.0000 </r>
       <r>   -20.8945     0.0000   170.0000 </r>
       <r>   -20.6482     0.0000   170.0000 </r>
       <r>   -20.4019     0.0000   170.0000 </r>
       <r>   -20.1555     0.0000   170.0000 </r>
       <r>   -19.9092     0.0000   170.0000 </r>
       <r>   -19.6628     0.0000   170.0000 </r>
       <r>   -19.4165     0.0000   170.0000 </r>
       <r>   -19.1701     0.0000   170.0000 </r>
       <r>   -18.9238     0.0000   170.0000 </r>
       <r>   -18.6775     0.0000   170.0000 </r>
       <r>   -18.4311     0.0000   170.0000 </r>
       <r>   -18.1848     0.0000   170.0000 </r>
       <r>   -17.9384     0.0000   170.0000 </r>
       <r>   -17.6921     0.0000   170.0000 </r>
       <r>   -17.4457     0.0000   170.0000 </r>
       <r>   -17.1994     0.0000   170.0000 </r>
       <r>   -16.9531     0.0000   170.0000 </r>
       <r>   -16.7067     0.0000   170.0000 </r>
       <r>   -16.4604     0.0000   170.0000 </r>
       <r>   -16.2140     0.0000   170.0000 </r>
       <r>   -15.9677     0.0000   170.0000 </r>
       <r>   -15.7213     0.0000   170.0000 </r>
       <r>   -15.4750     0.0000   170.0000 </r>
       <r>   -15.2287     0.0000   170.0000 </r>
       <r>   -14.9823     0.0000   170.0000 </r>
       <r>   -14.7360     0.0000   170.0000 </r>
       <r>   -14.4896     0.0000   170.0000 </r>
       <r>   -14.2433     0.0000   170.0000 </r>
       <r>   -13.9969     0.0000   170.0000 </r>
       <r>   -13.7506     0.0000   170.0000 </r>
       <r>   -13.5043     0.0000   170.0000 </r>
       <r>   -13.2579     0.0000   170.0000 </r>
       <r>   -13.0116     0.0000   170.0000 </r>
       <r>   -12.7652     0.0000   170.0000 </r>
       <r>   -12.5189     0.0000   170.0000 </r>
       <r>   -12.2725     0.0000   170.0000 </r>
       <r>   -12.0262     0.0000   170.0000 </r>
       <r>   -11.7798     0.0000   170.0000 </r>
       <r>   -11.5335     0.0000   170.0000 </r>
       <r>   -11.2872     0.0000   170.0000 </r>
       <r>   -11.0408     0.0000   170.0000 </r>
       <r>   -10.7945     0.0000   170.0000 </r>
       <r>   -10.5481     0.0000   170.0000 </r>
       <r>   -10.3018     0.0000   170.0000 </r>
       <r>   -10.0554     0.0000   170.0000 </r>
       <r>    -9.8091     0.0000   170.0000 </r>
       <r>    -9.5628     0.0000   170.0000 </r>
       <r>    -9.3164     0.0000   170.0000 </r>
       <r>    -9.0701     0.0000   170.0000 </r>
       <r>    -8.8237     0.0091   170.0022 </r>
       <r>    -8.5774     2.0058   170.4963 </r>
       <r>    -8.3310     6.2759   172.0424 </r>
       <r>    -8.0847     7.7557   173.9529 </r>
       <r>    -7.8384     8.8716   176.1384 </r>
       <r>    -7.5920    12.8572   179.3057 </r>
       <r>    -7.3457    16.3581   183.3354 </r>
       <r>    -7.0993    16.4443   187.3863 </r>
       <r>    -6.8530    14.7414   191.0177 </r>
       <r>    -6.6066    15.4521   194.8243 </r>
       <r>    -6.3603     4.7684   195.9989 </r>
       <r>    -6.1140     0.0044   196.0000 </r>
       <r>    -5.8676     0.0000   196.0000 </r>
       <r>    -5.6213     0.0000   196.0000 </r>
       <r>    -5.3749     0.0010   196.0002 </r>
       <r>    -5.1286     1.1970   196.2951 </r>
       <r>    -4.8822     6.3258   197.8535 </r>
       <r>    -4.6359     3.7037   198.7658 </r>
       <r>    -4.3896     9.4540   201.0948 </r>
       <r>    -4.1432    15.0127   204.7930 </r>
       <r>    -3.8969    20.8632   209.9326 </r>
       <r>    -3.6505    26.8964   216.5583 </r>
       <r>    -3.4042    23.7633   222.4122 </r>
       <r>    -3.1578    20.5399   227.4721 </r>
       <r>    -2.9115    14.0052   230.9222 </r>
       <r>    -2.6651     8.8437   233.1008 </r>
       <r>    -2.4188     3.5789   233.9824 </r>
       <r>    -2.1725     0.0715   234.0000 </r>
       <r>    -1.9261     0.0000   234.0000 </r>
       <r>    -1.6798     0.0000   234.0000 </r>
       <r>    -1.4334     0.0000   234.0000 </r>
       <r>    -1.1871     0.0000   234.0000 </r>
       <r>    -0.9407     0.0000   234.0000 </r>
       <r>    -0.6944     0.0000   234.0000 </r>
       <r>    -0.4481     0.0270   234.0066 </r>
       <r>    -0.2017     0.6972   234.1784 </r>
       <r>     0.0446     2.8318   234.8760 </r>
       <r>     0.2910    10.1756   237.3827 </r>
       <r>     0.5373    10.6222   239.9994 </r>
       <r>     0.7837    16.1687   243.9824 </r>
       <r>     1.0300    25.0807   250.1609 </r>
       <r>     1.2763    30.2596   257.6151 </r>
       <r>     1.5227    25.6818   263.9417 </r>
       <r>     1.7690    32.0507   271.8371 </r>
       <r>     2.0154    31.9851   279.7164 </r>
       <r>     2.2617    33.3689   287.9366 </r>
       <r>     2.5081    43.9873   298.7726 </r>
       <r>     2.7544    52.9480   311.8160 </r>
       <r>     3.0007    62.1202   327.1189 </r>
       <r>     3.2471    62.4265   342.4972 </r>
       <r>     3.4934    62.1778   357.8143 </r>
       <r>     3.7398    57.8760   372.0717 </r>
       <r>     3.9861    51.1427   384.6703 </r>
       <r>     4.2325    39.5822   394.4211 </r>
       <r>     4.4788    35.0030   403.0439 </r>
       <r>     4.7252    31.7034   410.8538 </r>
       <r>     4.9715    25.5331   417.1437 </r>
       <r>     5.2178    18.8003   421.7750 </r>
       <r>     5.4642    13.2501   425.0391 </r>
       <r>     5.7105     7.7473   426.9476 </r>
       <r>     5.9569    15.7074   430.8170 </r>
       <r>     6.2032    21.9647   436.2279 </r>
       <r>     6.4496    18.8871   440.8806 </r>
       <r>     6.6959    19.4488   445.6716 </r>
       <r>     6.9422    21.8921   451.0646 </r>
       <r>     7.1886    26.4580   457.5823 </r>
       <r>     7.4349    30.4429   465.0818 </r>
       <r>     7.6813    27.7259   471.9118 </r>
       <r>     7.9276    29.1646   479.0964 </r>
       <r>     8.1740    35.5620   487.8568 </r>
       <r>     8.4203    48.1860   499.7271 </r>
       <r>     8.6666    58.0657   514.0312 </r>
       <r>     8.9130    52.3340   526.9234 </r>
       <r>     9.1593    50.9157   539.4661 </r>
       <r>     9.4057    47.2979   551.1176 </r>
       <r>     9.6520    45.6777   562.3700 </r>
       <r>     9.8984    41.0467   572.4816 </r>
       <r>    10.1447    14.2389   575.9892 </r>
       <r>    10.3910     0.0438   576.0000 </r>
       <r>    10.6374     0.0000   576.0000 </r>
       <r>    10.8837     0.0000   576.0000 </r>
       <r>    11.1301     0.0000   576.0000 </r>
       <r>    11.3764     0.0000   576.0000 </r>
       <r>    11.6228     0.0000   576.0000 </r>
       <r>    11.8691     0.0000   576.0000 </r>
       <r>    12.1154     0.0000   576.0000 </r>
       <r>    12.3618     0.0000   576.0000 </r>
       <r>    12.6081     0.0000   576.0000 </r>
       <r>    12.8545     0.0000   576.0000 </r>
       <r>    13.1008     0.0000   576.0000 </r>
       <r>    13.3472     0.0000   576.0000 </r>
      </set>
     </set>
    </array>
   </total>
  </dos>
 </calculation>
 <structure name="finalpos" >
  <crystal>
   <varray name="basis" >
    <v>       8.70928682      -0.01963493      -0.00235552 </v>
    <v>      -0.01413856       8.74864166       0.01074163 </v>
    <v>       0.02901505      -0.00459731       8.76737306 </v>
   </varray>
   <i name="volume">    668.02357588 </i>
   <varray name="rec_basis" >
    <v>       0.11482028       0.00018603      -0.00037989 </v>
    <v>       0.00025771       0.11430380       0.00005908 </v>
    <v>       0.00003053      -0.00013999       0.11405908 </v>
   </varray>
  </crystal>
  <varray name="positions" >
   <v>       0.00574564       0.97966836       0.02429100 </v>
   <v>       0.23524885       0.97780878       0.24960108 </v>
   <v>       0.26837452       0.51820510       0.24466810 </v>
   <v>       0.49950317       0.47810778       0.99082423 </v>
   <v>       0.47958804       0.23903234       0.75663116 </v>
   <v>       0.00142736       0.49877628       0.52913278 </v>
   <v>       0.50752800       0.75289963       0.73190646 </v>
   <v>      -0.00209966       0.27113820       0.25645587 </v>
   <v>       0.74277927       0.74918042      -0.00100805 </v>
   <v>       0.01052024       0.23466438       0.74598184 </v>
   <v>       0.74863045       0.25300075       0.51468381 </v>
   <v>       0.00030822       0.76063504       0.74788187 </v>
   <v>       0.25618699       0.50347623       0.75353411 </v>
   <v>       0.24306984       0.24428684       0.00265845 </v>
   <v>       0.49451477       0.24238146       0.24820808 </v>
   <v>       0.73944812       0.98919897       0.25807373 </v>
   <v>       0.75409347       0.24850218       0.99036305 </v>
   <v>       0.26961803       0.75766858      -0.00129552 </v>
   <v>       0.25220153       0.25166500       0.49802199 </v>
   <v>       0.25066657       0.75017095       0.49829185 </v>
   <v>       0.24429762       0.25221310       0.24959460 </v>
   <v>       0.24663201       0.00024241       0.00111088 </v>
   <v>      -0.00145007       0.24058090       0.00339041 </v>
   <v>       0.74857391       0.24472387       0.25214539 </v>
   <v>       0.75431357       0.99626125      -0.00256656 </v>
   <v>       0.49473365       0.99774718       0.22593614 </v>
   <v>       0.00139739       0.49852593       0.24643985 </v>
   <v>       0.50971243       0.75601644      -0.01659687 </v>
   <v>       0.00390463       0.00021463       0.75379916 </v>
   <v>       0.74916877       0.24101519       0.74786207 </v>
   <v>       0.74600934       0.00724469       0.50415599 </v>
   <v>       0.50376883       0.24415023       0.50478182 </v>
   <v>       0.50209748       0.00202537       0.75391401 </v>
   <v>       0.00040110       0.00432215       0.24731027 </v>
   <v>       0.49907249       0.24984535      -0.00824528 </v>
   <v>       0.26599632       0.75138269       0.24878923 </v>
   <v>       0.24737449       0.50252285       0.00446656 </v>
   <v>       0.00302448       0.75008437       0.00002631 </v>
   <v>       0.74246388       0.74157585       0.24686508 </v>
   <v>       0.75711339       0.50252407       0.00217436 </v>
   <v>       0.49004685       0.50707561       0.24220837 </v>
   <v>       0.25467277       0.24435112       0.75113878 </v>
   <v>       0.25633337      -0.00007043       0.49504260 </v>
   <v>       0.99731100       0.25417174       0.50084126 </v>
   <v>       0.25755504       0.75769300       0.74846547 </v>
   <v>       0.24578955       0.50144515       0.49455747 </v>
   <v>       0.99596285       0.74653701       0.49950491 </v>
   <v>       0.00005069       0.50079159       0.75351485 </v>
   <v>       0.74526345       0.76275512       0.74274672 </v>
   <v>       0.75912108       0.49492359       0.49671734 </v>
   <v>       0.50629021       0.77011960       0.49597725 </v>
   <v>       0.50387980       0.50001238       0.75177183 </v>
   <v>       0.51477009       0.02257507       0.98913612 </v>
   <v>       0.00195509       0.52833227       0.97047019 </v>
   <v>       0.50513777       0.73022379       0.28053368 </v>
   <v>       0.26065975       0.00068932       0.73962262 </v>
   <v>       0.47251518       0.99539920       0.53639911 </v>
   <v>       0.71943187       0.98067442       0.77643374 </v>
   <v>       0.00438476       0.75384385       0.25214295 </v>
   <v>       0.72261699       0.50762602       0.24447077 </v>
   <v>       0.01376355       0.00122084       0.48323160 </v>
   <v>       0.50220156       0.51097941       0.49988476 </v>
   <v>       0.74434111       0.51756551       0.75453019 </v>
   <v>       0.74998685       0.72737877       0.49639826 </v>
  </varray>
 </structure>
</modeling>
