HECN                                    
           1
     8.932500    0.000000    0.000000
     0.005753    9.055598    0.000000
     0.032102   -0.015743    8.937128
   V    Ta   Hf   N    C    Cr   Mo
   7   6   7  13  19   6   6
Direct configuration=     1
   0.99688001  0.99204997  0.99924002
   0.25398003  0.99714995  0.24912000
   0.24803003  0.50165000  0.24955001
   0.50501006  0.49745998  0.99834003
   0.50479003  0.24631001  0.74710002
   0.99427992  0.50449999  0.49779000
   0.49950005  0.75481999  0.74817004
   0.99437004  0.23617001  0.26379999
   0.75718000  0.74102998  0.01100000
   0.00201000  0.25541000  0.73894001
   0.75307001  0.26163001  0.50533002
   0.99514004  0.74492004  0.74511997
   0.25679999  0.49462002  0.74545002
   0.24788999  0.24839000  0.99657997
   0.50833000  0.25676999  0.25376001
   0.74879004  0.98787999  0.26967001
   0.75719000  0.25603001  0.99591997
   0.24762001  0.74973999  0.99974006
   0.25272001  0.24823001  0.50015003
   0.24457999  0.75048999  0.49983999
   0.24982001  0.24942998  0.24825000
   0.26146999  0.99984002  0.99295996
   0.00281000  0.25024000  0.00130000
   0.75313998  0.24617000  0.25492002
   0.74767001  0.99748000  0.01202000
   0.50714994  0.99977000  0.24673000
   0.99051999  0.48088002  0.24100998
   0.50519005  0.76130999  0.00855000
   0.98896989  0.00202000  0.73708999
   0.75744996  0.24437997  0.74896999
   0.73632001  0.00417000  0.51063000
   0.50563996  0.23264999  0.49544997
   0.50008998  0.00061000  0.73471998
   0.99720000  0.99771992  0.25899999
   0.50427997  0.24673000  0.00262000
   0.25133999  0.74958002  0.24910999
   0.24328000  0.50072997  0.99510994
   0.99837005  0.74313996  0.00460000
   0.75633000  0.73891003  0.25767000
   0.75839004  0.50315998  0.00288000
   0.50700002  0.50333002  0.25878999
   0.24900999  0.25315000  0.74854000
   0.24446000  0.99823996  0.50287998
   0.99804009  0.24229999  0.50128003
   0.24177002  0.75340997  0.75018002
   0.25841001  0.50062002  0.50129001
   0.99000004  0.76215003  0.49746000
   0.99203996  0.50055999  0.75138002
   0.75036005  0.74888000  0.74756004
   0.74036002  0.50197000  0.50067003
   0.50575006  0.74958002  0.49720000
   0.50501003  0.50217998  0.73912003
   0.51588997  0.01358000  0.98075008
   0.99841994  0.50976998  0.98613004
   0.50379003  0.73926997  0.25905001
   0.23780002  0.01082000  0.74607998
   0.47957999  0.98308000  0.49717999
   0.74279003  0.97869994  0.76450995
   0.99864998  0.77573999  0.26102000
   0.73551001  0.51468004  0.26666001
   0.02362000  0.99783001  0.49557002
   0.50539000  0.52833005  0.49917999
   0.73876003  0.52828003  0.73814999
   0.75400003  0.72937999  0.49116997
HECN                                    
           1
     8.364028    0.004153   -0.006582
     0.009597    8.442742    0.004081
     0.023467   -0.010632    8.392844
   V    Ta   Hf   N    C    Cr   Mo
   7   6   7  13  19   6   6
Direct configuration=     2
   0.99723399  0.98828255  0.99900850
   0.25175959  0.99171211  0.24950197
   0.25142269  0.50670742  0.24875843
   0.50425389  0.49368922  0.99750870
   0.50137309  0.24363180  0.75131847
   0.99465250  0.50267962  0.50121046
   0.50020937  0.75746257  0.74706426
   0.00005190  0.23938163  0.26072933
   0.75200521  0.74473376  0.00927135
   0.00239222  0.25300749  0.74025654
   0.75003119  0.25751687  0.51052517
   0.99884589  0.74804218  0.74711826
   0.25793121  0.49711814  0.74910941
   0.24964446  0.24528877  0.99946874
   0.50271845  0.25174719  0.25191131
   0.74078619  0.98973512  0.26694253
   0.75541312  0.25350342  0.99194627
   0.25462793  0.75400312  0.00121034
   0.25700852  0.24869369  0.49768457
   0.24871529  0.74945763  0.49806572
   0.24939815  0.24995297  0.24902025
   0.25889302  0.00058038  0.99468299
   0.00206862  0.24764002  0.00172327
   0.75333305  0.24518290  0.25496487
   0.74910952  0.99615315  0.00685359
   0.50119984  0.99982100  0.24893301
   0.99489282  0.47944755  0.24483258
   0.50617434  0.75852303  0.00542428
   0.98833284  0.00256438  0.74350020
   0.75355834  0.24407471  0.74853438
   0.73672357  0.00536733  0.50972241
   0.50555819  0.23302515  0.49969715
   0.50361236  0.00002324  0.73783491
   0.00260209  0.00146937  0.25020025
   0.50439109  0.24844097 -0.00385184
   0.25273238  0.74876381  0.24988741
   0.24619403  0.50002806  0.99927233
   0.99741081  0.74529126  0.00331545
   0.75185331  0.74277589  0.25207090
   0.75529515  0.50407516  0.00283941
   0.49764978  0.50747597  0.25075096
   0.25241133  0.25028245  0.74841878
   0.25406903  0.99783869  0.50231768
   0.99765192  0.24883131  0.50052507
   0.24576078  0.75310908  0.75002379
   0.25294824  0.50025315  0.49613871
   0.99372620  0.75479560  0.50112819
   0.99442066  0.50082625  0.74949005
   0.74397578  0.75788717  0.75042079
   0.75072520  0.49715966  0.50252820
   0.50258892  0.75699773  0.49853824
   0.50180962  0.50117533  0.74695855
   0.51646854  0.01666471  0.97545280
   0.99980580  0.51429575  0.98258443
   0.50395610  0.73579392  0.25823452
   0.23730432  0.01094526  0.74793411
   0.47607264  0.98145756  0.50011992
   0.73801577  0.97409925  0.76697204
   0.00358479  0.77500641  0.25666621
   0.73713027  0.51281792  0.26066015
   0.02324090  0.99938336  0.49889177
   0.49991539  0.52721933  0.49929453
   0.73753681  0.52245873  0.74416933
   0.75482136  0.73363055  0.49371317
HECN                                    
           1
     8.673260    0.001894   -0.003001
     0.007506    8.776118    0.001861
     0.028164   -0.013412    8.688919
   V    Ta   Hf   N    C    Cr   Mo
   7   6   7  13  19   6   6
Direct configuration=     3
   0.99702735  0.99048071  0.99914138
   0.25304776  0.99488434  0.24928018
   0.24945361  0.50375737  0.24921684
   0.50469246  0.49588884  0.99798952
   0.50335539  0.24519465  0.74887574
   0.99443393  0.50374281  0.49922847
   0.49979859  0.75592062  0.74770521
  -0.00324656  0.23750853  0.26250633
   0.75501335  0.74257079  0.01027608
   0.00216885  0.25440974  0.73949309
   0.75179295  0.25991733  0.50751611
   0.99669300  0.74622217  0.74595995
   0.25727308  0.49566196  0.74698991
   0.24862297  0.24709953  0.99779374
   0.50597781  0.25467565  0.25298330
   0.74543777  0.98864967  0.26852659
   0.75644648  0.25497594  0.99424812
   0.25055731  0.75151819  0.00035670
   0.25451842  0.24842367  0.49911086
   0.24631344  0.75006064  0.49909129
   0.24964302  0.24964793  0.24857442
   0.26038951  0.00014817  0.99368631
   0.00249836  0.24915691  0.00147769
   0.75322058  0.24575889  0.25493852
   0.74827525  0.99692624  0.00984519
   0.50465549  0.99979017  0.24765965
   0.99235027  0.48028567  0.24261595
   0.50560315  0.76014849  0.00723361
   0.98870012  0.00224840  0.73978754
   0.75581926  0.24425158  0.74878839
   0.73648990  0.00466859  0.51024829
   0.50560384  0.23280744  0.49723712
   0.50156445  0.00036748  0.73602882
  -0.00053103 -0.00071924  0.25529609
   0.50433004  0.24744087 -0.00010260
   0.25192288  0.74924065  0.24943622
   0.24449902  0.50043961  0.99685975
   0.99796930  0.74403543  0.00406057
   0.75445773  0.74051745  0.25531731
   0.75709339  0.50354030  0.00286459
   0.50308666  0.50505202  0.25541299
   0.25043456  0.25195648  0.74848664
   0.24848689  0.99807539  0.50263890
   0.99787970  0.24502024  0.50096441
   0.24344236  0.75328573  0.75011238
   0.25612348  0.50046417  0.49912498
   0.99155765  0.75908870  0.49899961
   0.99303857  0.50067104  0.75058380
   0.74768600  0.75263087  0.74876917
   0.74470136  0.49996978  0.50144577
   0.50442692  0.75266929  0.49776662
   0.50366495  0.50176282  0.74241927
   0.51613578  0.01486357  0.97852185
   0.99900367  0.51165454  0.98463887
   0.50385898  0.73782186  0.25870583
   0.23759147  0.01087256  0.74686037
   0.47810837  0.98240403  0.49841811
   0.74078684  0.97678290  0.76554675
   0.00071975  0.77543459  0.25918568
   0.73619122  0.51390314  0.26413429
   0.02346005  0.99847789  0.49696826
   0.50309544  0.52786586  0.49923036
   0.73824293  0.52585657  0.74068154
   0.75434429  0.73115149  0.49224086
HECN                                    
           1
     8.675844    0.001899   -0.006451
     0.007522    8.733108    0.004088
     0.024721   -0.011142    8.703858
   V    Ta   Hf   N    C    Cr   Mo
   7   6   7  13  19   6   6
Direct configuration=     4
   0.99847421  0.98686801  0.99817979
   0.25061976  0.98931691  0.24928136
   0.25362626  0.50923923  0.24773450
   0.50311726  0.49190109  0.99721594
   0.49891482  0.24230480  0.75364812
   0.99640486  0.50126391  0.50305740
   0.50003554  0.75928442  0.74685746
   0.00301527  0.24185149  0.25683066
   0.74795611  0.74853151  0.00696253
   0.00395245  0.25075474  0.74356639
   0.74803147  0.25440093  0.51164548
   0.99977924  0.75092353  0.74945869
   0.25682188  0.49856388  0.75122412
   0.25027658  0.24404508  0.00043059
   0.49976550  0.25025955  0.25021069
   0.73982537  0.99167224  0.26402727
   0.75468244  0.25160296  0.99154942
   0.25867080  0.75591951  0.00155975
   0.25854248  0.24931060  0.49719113
   0.24992687  0.74911293  0.49783699
   0.24957067  0.25029003  0.24898022
   0.25813191  0.00053480  0.99560675
   0.00198520  0.24680460  0.00216332
   0.75265348  0.24528066  0.25426348
   0.74994711  0.99591604  0.00391110
   0.49616313  0.99875693  0.24893085
   0.99740070  0.48207488  0.24606214
   0.50589982  0.75764270  0.00376343
   0.98771885  0.00265355  0.74784709
   0.75017220  0.24399100  0.74873386
   0.73753583  0.00469892  0.51191897
   0.50528049  0.23381796  0.50280374
   0.50483537 -0.00013825  0.73974800
   0.00479080  0.00301189  0.24548603
   0.50373924  0.24978878 -0.00715939
   0.25487951  0.74830242  0.24971817
   0.24749755  0.49990598  0.00259438
   0.99902783  0.74656224  0.00338804
   0.74919795  0.74545326  0.25052765
   0.75400994  0.50293377  0.00301157
   0.49150841  0.50926641  0.24613458
   0.25561210  0.24774530  0.74877531
   0.25933319  0.99777688  0.50242372
   0.99858649  0.25266721  0.50016019
   0.24950151  0.75449478  0.75029548
   0.24959882  0.49994775  0.49304842
   0.99598264  0.75057569  0.50195069
   0.99579110  0.50092062  0.74857790
   0.74086606  0.76179767  0.75087357
   0.75476392  0.49572282  0.50287303
   0.50166892  0.76235267  0.49925610
   0.50035148  0.50031775  0.75122094
   0.51557464  0.01730311  0.97264255
   0.00074654  0.51574196  0.98126995
   0.50323520  0.73494509  0.25695665
   0.23734988  0.00994565  0.74943038
   0.47601341  0.98174588  0.50149857
   0.73511335  0.97449232  0.76866540
   0.00592086  0.76998023  0.25285310
   0.73879768  0.50837051  0.25552619
   0.01990008  0.00129222  0.50005176
   0.49810601  0.52174207  0.49855087
   0.73872399  0.51755631  0.74988297
   0.75407734  0.73788937  0.49631416
HECN                                    
           1
     8.676219    0.001899   -0.006952
     0.007525    8.726864    0.004411
     0.024221   -0.010813    8.706027
   V    Ta   Hf   N    C    Cr   Mo
   7   6   7  13  19   6   6
Direct configuration=     5
   0.99868415  0.98634097  0.99804064
   0.25026738  0.98850465  0.24928160
   0.25423177  0.51003906  0.24751970
   0.50288860  0.49131933  0.99710389
   0.49827062  0.24188301  0.75433963
   0.99669113  0.50090211  0.50361253
   0.50006987  0.75977520  0.74673448
   0.00392374  0.24248532  0.25600828
   0.74693166  0.74940126  0.00648167
   0.00421155  0.25022134  0.74415697
   0.74748579  0.25359597  0.51224394
   0.00022736  0.75160929  0.74996576
   0.25675664  0.49898708  0.75183765
   0.25051674  0.24359936  0.00081296
   0.49886371  0.24961538  0.24980867
   0.73901055  0.99211338  0.26337475
   0.75442627  0.25111096  0.99115832
   0.25984842  0.75656159  0.00173441
   0.25912640  0.24944007  0.49691311
   0.25045124  0.74897471  0.49765545
   0.24956020  0.25038370  0.24903900
   0.25780437  0.00059114  0.99588493
   0.00191076  0.24646139  0.00226275
   0.75257113  0.24521091  0.25416564
   0.75018940  0.99576889  0.00305121
   0.49493067  0.99860614  0.24911464
   0.99813389  0.48233578  0.24656181
   0.50594268  0.75727725  0.00326061
   0.98757691  0.00271235  0.74901508
   0.74935262  0.24395299  0.74872564
   0.73768772  0.00470328  0.51216116
   0.50523388  0.23396518  0.50361045
   0.50531032 -0.00021218  0.74028723
   0.00556260  0.00355661  0.24406444
   0.50365308  0.25013159 -0.00818225
   0.25530864  0.74816553  0.24975923
   0.24793308  0.49982791  0.00342568
   0.99918142  0.74693091  0.00329054
   0.74843429  0.74617354  0.24983300
   0.75356243  0.50284528  0.00303271
   0.48982745  0.50988162  0.24478905
   0.25636357  0.24713091  0.74881760
   0.26090735  0.99773334  0.50239317
   0.99868902  0.25378288  0.50004338
   0.25038091  0.75467117  0.75032231
   0.24865151  0.49987264  0.49216740
   0.99662503  0.74933359  0.50237897
   0.99619047  0.50095710  0.74828733
   0.73987637  0.76313496  0.75117782
   0.75622443  0.49510316  0.50308062
   0.50126872  0.76376535  0.49947145
   0.49987110  0.50010659  0.75249642
   0.51549285  0.01765925  0.97179035
   0.00099930  0.51633841  0.98078164
   0.50314457  0.73452545  0.25670322
   0.23731497  0.00981033  0.74980287
   0.47570953  0.98164975  0.50194492
   0.73429012  0.97415802  0.76911714
   0.00667536  0.76918472  0.25193582
   0.73917547  0.50756366  0.25427899
   0.01938358  0.00170270  0.50049834
   0.49738184  0.52084868  0.49845233
   0.73879435  0.51634501  0.75121686
   0.75403883  0.73887223  0.49690424
HECN                                    
           1
     8.731437   -0.006709   -0.010479
    -0.001099    8.786145    0.007311
     0.020875   -0.008032    8.743047
   V    Ta   Hf   N    C    Cr   Mo
   7   6   7  13  19   6   6
Direct configuration=     6
   0.00141400  0.98333278  0.99734686
   0.24789834  0.98456980  0.25081518
   0.25800175  0.51498982  0.24564569
   0.50193927  0.48755364  0.99641787
   0.49357518  0.24022379  0.75695755
   0.00008727  0.49912590  0.50796397
   0.50046943  0.76164517  0.74365944
   0.00387861  0.24557564  0.25530077
   0.74422919  0.74942835  0.00477546
   0.00824472  0.24757893  0.74496269
   0.74747952  0.25116050  0.51271175
  -0.00024033  0.75338248  0.75168354
   0.25512503  0.49888086  0.75331090
   0.24932290  0.24318901 -0.00074513
   0.49857328  0.25024783  0.24790074
   0.73974273  0.99357956  0.26100148
   0.75427986  0.24953847  0.99204354
   0.26283759  0.75700559  0.00125516
   0.25689787  0.24987193  0.49942743
   0.24845337  0.74925074  0.49860445
   0.24969832  0.25016125  0.24909908
   0.25680136  0.00064736  0.99718007
   0.00182926  0.24564378  0.00235654
   0.75141140  0.24479824  0.25376957
   0.75024142  0.99659218 -0.00019056
   0.49202436  0.99815467  0.24955428
   0.99999989  0.48653794  0.24836279
   0.50634117  0.75639538  0.00075691
   0.98779893  0.00295125  0.75291631
   0.74784893  0.24511429  0.74854530
   0.74094168  0.00402718  0.51147242
   0.50577160  0.23774103  0.50432156
   0.50696841 -0.00017978  0.74348140
   0.00604697  0.00029508  0.24241902
   0.50270432  0.25105512 -0.00906352
   0.25828691  0.74833418  0.24923253
   0.24812101  0.50071899  0.00542269
   0.00052017  0.74769479  0.00314002
   0.74649242  0.74491870  0.25167923
   0.75322337  0.50285785  0.00360885
   0.48923140  0.51026909  0.24259962
   0.25774870  0.24590507  0.74962746
   0.25886264  0.99850183  0.50342076
   0.99938410  0.25629715  0.49978152
   0.25346364  0.75643798  0.75078440
   0.24612334  0.49969581  0.49191005
   0.99769812  0.74650324  0.50101194
   0.99784726  0.50137587  0.74881198
   0.74032250  0.75895898  0.74964181
   0.75654808  0.49803827  0.50217691
   0.50362514  0.76254530  0.49813790
   0.50053264  0.49985219  0.75406819
   0.51506893  0.01904135  0.96720525
   0.00174552  0.52085125  0.97697887
   0.50172762  0.73050147  0.25799711
   0.23576817  0.00735534  0.75033632
   0.47739792  0.98304693  0.50555651
   0.72853006  0.97785911  0.77213184
   0.00592151  0.76826940  0.25008885
   0.73436665  0.50839330  0.25022386
   0.02041451  0.00287396  0.49827272
   0.50032180  0.51949862  0.49657227
   0.73903798  0.51703690  0.75587403
   0.75303067  0.73630107  0.49768610
HECN                                    
           1
     8.738913   -0.007875   -0.010957
    -0.002266    8.794171    0.007704
     0.020423   -0.007656    8.748059
   V    Ta   Hf   N    C    Cr   Mo
   7   6   7  13  19   6   6
Direct configuration=     7
   0.00178081  0.98292865  0.99725361
   0.24757919  0.98404028  0.25102197
   0.25850949  0.51565615  0.24539303
   0.50181102  0.48704716  0.99632549
   0.49294341  0.23999994  0.75731030
   0.00054415  0.49888731  0.50855087
   0.50052327  0.76189682  0.74324482
   0.00387292  0.24599123  0.25520525
   0.74386553  0.74943171  0.00454530
   0.00878700  0.24722409  0.74507164
   0.74747837  0.25083298  0.51277492
  -0.00030292  0.75362079  0.75191502
   0.25490559  0.49886630  0.75350943
   0.24916215  0.24313374 -0.00095522
   0.49853419  0.25033292  0.24764348
   0.73984130  0.99377692  0.26068151
   0.75426000  0.24932695  0.99216294
   0.26323976  0.75706572  0.00119069
   0.25659825  0.24992960  0.49976626
   0.24818469  0.74928755  0.49873227
   0.24971687  0.25013135  0.24910720
   0.25666650  0.00065473  0.99735461
   0.00181819  0.24553381  0.00236922
   0.75125531  0.24474261  0.25371613
   0.75024836  0.99670304 -0.00062763
   0.49163334  0.99809355  0.24961342
   0.00025158  0.48710318  0.24860550
   0.50639452  0.75627695  0.00041943
   0.98782904  0.00298324  0.75344225
   0.74764679  0.24527027  0.74852086
   0.74137931  0.00393672  0.51137978
   0.50584448  0.23824882  0.50441730
   0.50719164 -0.00017534  0.74391211
   0.00611160 -0.00014337  0.24219737
   0.50257676  0.25117922 -0.00918242
   0.25868757  0.74835728  0.24916168
   0.24814652  0.50083875  0.00569189
   0.00070037  0.74779770  0.00311976
   0.74623111  0.74474963  0.25192808
   0.75317779  0.50285947  0.00368651
   0.48915115  0.51032121  0.24230440
   0.25793493  0.24574038  0.74973676
   0.25858772  0.99860485  0.50355915
   0.99947793  0.25663535  0.49974615
   0.25387862  0.75667596  0.75084678
   0.24578318  0.49967171  0.49187523
   0.99784204  0.74612283  0.50082783
   0.99807024  0.50143238  0.74888278
   0.74038188  0.75839755  0.74943494
   0.75659197  0.49843305  0.50205497
   0.50394192  0.76238161  0.49795829
   0.50062169  0.49981799  0.75428013
   0.51501184  0.01922735  0.96658703
   0.00184631  0.52145837  0.97646604
   0.50153653  0.72996011  0.25817165
   0.23555977  0.00702498  0.75040826
   0.47762544  0.98323488  0.50604344
   0.72775581  0.97835592  0.77253780
   0.00581988  0.76814629  0.24983985
   0.73371961  0.50850440  0.24967688
   0.02055324  0.00303170  0.49797268
   0.50071703  0.51931754  0.49631903
   0.73907110  0.51712977  0.75650187
   0.75289474  0.73595515  0.49779157
HECN                                    
           1
     8.674887   -0.013067   -0.011265
    -0.007518    8.744714    0.008743
     0.019896   -0.006540    8.689487
   V    Ta   Hf   N    C    Cr   Mo
   7   6   7  13  19   6   6
Direct configuration=     8
   0.00594386  0.97985781  0.99717312
   0.24553175  0.97983664  0.25308006
   0.26269163  0.52012607  0.24378562
   0.50088863  0.48296281  0.99481662
   0.48719125  0.23922341  0.75868162
   0.00376809  0.49726098  0.51467036
   0.50260820  0.76320375  0.73824145
   0.00355784  0.24914463  0.25537200
   0.74173224  0.74924234  0.00335930
   0.01183499  0.24409051  0.74520660
   0.74838314  0.25061699  0.51352669
  -0.00124758  0.75541165  0.75173906
   0.25471154  0.49999237  0.75415999
   0.24726202  0.24289537 -0.00060283
   0.49735121  0.25026515  0.24725808
   0.74020224  0.99279129  0.25887497
   0.75496291  0.24865684  0.99247137
   0.26577772  0.75734675  0.00024073
   0.25543191  0.25037409  0.50048068
   0.24818828  0.74944904  0.49973119
   0.24919079  0.24977188  0.24940877
   0.25538251  0.00042015  0.99889096
   0.00133912  0.24468394  0.00219646
   0.75019522  0.24425231  0.25329114
   0.74973811  0.99723145 -0.00271340
   0.49104911  0.99873616  0.25070742
   0.00147209  0.49024884  0.25039878
   0.50743301  0.75563936 -0.00242842
   0.98930762  0.00305296  0.75630610
   0.74755506  0.24598284  0.74819269
   0.74533455  0.00468512  0.50911439
   0.50634130  0.24312964  0.50424424
   0.50830388 -0.00026659  0.74590948
   0.00507362 -0.00077660  0.24265738
   0.50153300  0.25097701 -0.00874424
   0.26131843  0.74928389  0.24936363
   0.24759473  0.50199557  0.00624937
   0.00164680  0.74810098  0.00250454
   0.74474481  0.74356107  0.25296586
   0.75382279  0.50286309  0.00437799
   0.49035784  0.50868018  0.24127481
   0.25841004  0.24513605  0.75069396
   0.25649116  0.99915090  0.50469555
   0.99952069  0.25696497  0.49999725
   0.25577234  0.75820080  0.75094120
   0.24494487  0.50028265  0.49304650
   0.99721924  0.74525199  0.49937106
   0.99904362  0.50146667  0.75004318
   0.74214565  0.75627828  0.74808357
   0.75574263  0.49960471  0.50085144
   0.50531095  0.76066856  0.49544095
   0.50161580  0.49957316  0.75407312
   0.51466637  0.02166264  0.96356915
   0.00238313  0.52721156  0.97245745
   0.50055241  0.72709748  0.26180090
   0.23302603  0.00392090  0.75060561
   0.47768430  0.98477903  0.51099801
   0.72195168  0.97933155  0.77445102
   0.00432394  0.76602204  0.24952410
   0.72713139  0.50998183  0.24645749
   0.02086714  0.00404451  0.49413772
   0.50374346  0.51786555  0.49459266
   0.73924242  0.51851760  0.75925459
   0.75270484  0.73198459  0.49847905
HECN                                    
           1
     8.692160   -0.011666   -0.011182
    -0.006101    8.758056    0.008463
     0.020038   -0.006841    8.705288
   V    Ta   Hf   N    C    Cr   Mo
   7   6   7  13  19   6   6
Direct configuration=     9
   0.00481301  0.98069024  0.99719483
   0.24608883  0.98097748  0.25252099
   0.26155437  0.51891266  0.24422228
   0.50113999  0.48407098  0.99522629
   0.48875458  0.23943507  0.75830923
   0.00289214  0.49770187  0.51300828
   0.50204144  0.76284868  0.73960033
   0.00364294  0.24828918  0.25532682
   0.74231203  0.74929402  0.00368143
   0.01100717  0.24494015  0.74516980
   0.74813729  0.25067547  0.51332250
  -0.00099115  0.75492594  0.75178692
   0.25476408  0.49968692  0.75398334
   0.24777844  0.24296036 -0.00069852
   0.49767271  0.25028371  0.24736276
   0.74010434  0.99305857  0.25936557
   0.75477199  0.24883853  0.99238758
   0.26508797  0.75727006  0.00049871
   0.25574879  0.25025372  0.50028668
   0.24818727  0.74940526  0.49945990
   0.24933382  0.24986950  0.24932686
   0.25573147  0.00048405  0.99847371
   0.00146945  0.24491458  0.00224336
   0.75048340  0.24438549  0.25340656
   0.74987671  0.99708811 -0.00214690
   0.49120777  0.99856195  0.25041033
   0.00113986  0.48939529  0.24991183
   0.50715093  0.75581208 -0.00165501
   0.98890575  0.00303390  0.75552830
   0.74757987  0.24578952  0.74828184
   0.74425957  0.00448136  0.50972962
   0.50620548  0.24180540  0.50429140
   0.50800161 -0.00024195  0.74536700
   0.00535580 -0.00060462  0.24253243
   0.50181668  0.25103205 -0.00886324
   0.26060330  0.74903208  0.24930878
   0.24774449  0.50168184  0.00609801
   0.00138955  0.74801852  0.00267163
   0.74514892  0.74388380  0.25268399
   0.75364750  0.50286203  0.00419018
   0.49003019  0.50912515  0.24155437
   0.25828101  0.24529996  0.75043397
   0.25706082  0.99900314  0.50438696
   0.99950901  0.25687555  0.49992906
   0.25525744  0.75778681  0.75091559
   0.24517258  0.50011708  0.49272843
   0.99738866  0.74548830  0.49976668
   0.99877907  0.50145725  0.74972802
   0.74166669  0.75685290  0.74845049
   0.75597327  0.49928694  0.50117836
   0.50493921  0.76113300  0.49612456
   0.50134568  0.49963942  0.75412932
   0.51475989  0.02100191  0.96438886
   0.00223634  0.52565052  0.97354632
   0.50082028  0.72787438  0.26081515
   0.23371511  0.00476345  0.75055194
   0.47766799  0.98436026  0.50965245
   0.72352884  0.97906788  0.77393151
   0.00473083  0.76659858  0.24960980
   0.72892161  0.50958198  0.24733197
   0.02078172  0.00376956  0.49517929
   0.50292126  0.51825892  0.49506143
   0.73919560  0.51814115  0.75850703
   0.75275709  0.73306184  0.49829220
HECN                                    
           1
     8.695248   -0.011242   -0.007479
    -0.005667    8.763424    0.007279
     0.023771   -0.008033    8.719965
   V    Ta   Hf   N    C    Cr   Mo
   7   6   7  13  19   6   6
Direct configuration=    10
   0.00846832  0.97949026  0.99827460
   0.24529855  0.97914725  0.25381988
   0.26341497  0.51971845  0.24394050
   0.50044253  0.48171020  0.99345549
   0.48505121  0.24029237  0.75746606
   0.00405261  0.49703408  0.51763780
   0.50468513  0.76261119  0.73504814
   0.00327986  0.25124603  0.25554364
   0.74166130  0.74966022  0.00319742
   0.01115341  0.24276048  0.74550560
   0.74893441  0.25210483  0.51369360
  -0.00150961  0.75637333  0.74979368
   0.25581371  0.50184553  0.75366288
   0.24624606  0.24315091  0.00163895
   0.49615807  0.24851023  0.24860482
   0.73958184  0.99118502  0.25882396
   0.75570318  0.24902690  0.99203045
   0.26653754  0.75741663 -0.00012325
   0.25637205  0.25078766  0.49892480
   0.24964642  0.74937601  0.49979680
   0.24832318  0.24976943  0.24978649
   0.25465923  0.00010007  0.99977620
   0.00083595  0.24422832  0.00196530
   0.75001660  0.24435594  0.25310305
   0.74929971  0.99692258 -0.00221555
   0.49199453  0.99927668  0.25158102
   0.00170799  0.49071755  0.25076435
   0.50792571  0.75559675 -0.00371449
   0.99065218  0.00263879  0.75641474
   0.74829624  0.24553648  0.74822123
   0.74702027  0.00595312  0.50766809
   0.50624654  0.24524807  0.50429602
   0.50708188 -0.00022884  0.74435275
   0.00384077  0.00142695  0.24364385
   0.50112984  0.24996534 -0.00803475
   0.26205573  0.75020958  0.24993115
   0.24695853  0.50242611  0.00557111
   0.00183587  0.74817089  0.00174353
   0.74439503  0.74357221  0.25184772
   0.75489448  0.50272653  0.00449921
   0.49041330  0.50653157  0.24098637
   0.25799890  0.24509744  0.75091347
   0.25703519  0.99907991  0.50505828
   0.99924778  0.25562737  0.50054866
   0.25570821  0.75859863  0.75037781
   0.24591548  0.50097328  0.49398828
   0.99639803  0.74622175  0.49921269
   0.99864739  0.50107695  0.75048356
   0.74309651  0.75867218  0.74782264
   0.75591617  0.49726680  0.50026721
   0.50473642  0.76136045  0.49381585
   0.50193797  0.49934204  0.75295662
   0.51386273  0.02303203  0.96575076
   0.00226017  0.52896237  0.97230448
   0.50095462  0.72878455  0.26534871
   0.23198982  0.00226009  0.75058688
   0.47657476  0.98588938  0.51369298
   0.72215853  0.97780076  0.77322135
   0.00365765  0.76299095  0.25091754
   0.72626061  0.50941306  0.24622913
   0.01878436  0.00415034  0.49191312
   0.50334137  0.51563778  0.49474575
   0.73987375  0.51780466  0.75815158
   0.75306883  0.73136531  0.49876957
HECN                                    
           1
     8.697251   -0.010967   -0.005077
    -0.005385    8.766906    0.006511
     0.026192   -0.008806    8.729483
   V    Ta   Hf   N    C    Cr   Mo
   7   6   7  13  19   6   6
Direct configuration=    11
   0.01083774  0.97871250  0.99897257
   0.24478592  0.97796118  0.25466088
   0.26462122  0.52024062  0.24375762
   0.49999093  0.48018000  0.99230902
   0.48265057  0.24084804  0.75692126
   0.00480368  0.49660163  0.52063468
   0.50640026  0.76245678  0.73210019
   0.00304431  0.25316246  0.25568438
   0.74123956  0.74989754  0.00288427
   0.01124820  0.24134782  0.74572277
   0.74945103  0.25303123  0.51393376
  -0.00184521  0.75731126  0.74850348
   0.25649419  0.50324450  0.75345530
   0.24525199  0.24327467  0.00315273
   0.49517586  0.24736095  0.24940922
   0.73924332  0.98997071  0.25847329
   0.75630694  0.24914893  0.99179899
   0.26747744  0.75751152 -0.00052630
   0.25677646  0.25113358  0.49804297
   0.25059227  0.74935703  0.50001452
   0.24766788  0.24970464  0.25008433
   0.25396377 -0.00014864  0.00061972
   0.00042536  0.24378353  0.00178540
   0.74971407  0.24433677  0.25290668
   0.74892567  0.99681530 -0.00225985
   0.49250423  0.99973999  0.25233881
   0.00207603  0.49157458  0.25131625
   0.50842856  0.75545700 -0.00504807
   0.99178413  0.00238273  0.75698812
   0.74876067  0.24537244  0.74818177
   0.74881051  0.00690674  0.50633278
   0.50627304  0.24747933  0.50429931
   0.50648591 -0.00022041  0.74369635
   0.00285822  0.00274380  0.24436400
   0.50068437  0.24927408 -0.00749827
   0.26299711  0.75097275  0.25033379
   0.24644912  0.50290847  0.00523026
   0.00212547  0.74826954  0.00114255
   0.74390654  0.74337022  0.25130648
   0.75570281  0.50263870  0.00469893
   0.49066191  0.50485055  0.24061829
   0.25781588  0.24496623  0.75122397
   0.25701839  0.99912972  0.50549292
   0.99907830  0.25481846  0.50094976
   0.25600056  0.75912473  0.75002959
   0.24639672  0.50152829  0.49480380
   0.99575594  0.74669710  0.49885436
   0.99856184  0.50083054  0.75097272
   0.74402356  0.75985120  0.74741592
   0.75587948  0.49595744  0.49967716
   0.50460559  0.76150767  0.49232121
   0.50232228  0.49914918  0.75219720
   0.51328067  0.02434793  0.96663291
   0.00227585  0.53110873  0.97150077
   0.50104043  0.72937483  0.26828388
   0.23087141  0.00063768  0.75060976
   0.47586488  0.98688082  0.51630936
   0.72127042  0.97697951  0.77276185
   0.00296168  0.76065293  0.25176418
   0.72453583  0.50930358  0.24551584
   0.01749038  0.00439691  0.48979910
   0.50361390  0.51393892  0.49454102
   0.74031349  0.51758652  0.75792123
   0.75327086  0.73026578  0.49907839
HECN                                    
           1
     8.734408   -0.010838   -0.003668
    -0.005264    8.777176    0.006248
     0.027728   -0.009090    8.746773
   V    Ta   Hf   N    C    Cr   Mo
   7   6   7  13  19   6   6
Direct configuration=    12
   0.01231288  0.97851836  0.00220666
   0.24316867  0.97832664  0.25520385
   0.26495868  0.51925224  0.24429357