  64  64   0   0
  0.2218804E+02  0.1124000E-08  0.1124000E-08  0.1124000E-08  0.5000000E-15
  1.000000000000000E-004
  CAR 
 HECN                                    
     14.12996202    -60.63255795  301      7.64525187      1.00000000
    -60.633  0.0000E+00  0.0000E+00
    -60.383  0.0000E+00  0.0000E+00
    -60.134  0.0000E+00  0.0000E+00
    -59.885  0.0000E+00  0.0000E+00
    -59.636  0.0000E+00  0.0000E+00
    -59.387  0.0000E+00  0.0000E+00
    -59.137  0.0000E+00  0.0000E+00
    -58.888  0.0000E+00  0.0000E+00
    -58.639  0.0000E+00  0.0000E+00
    -58.390  0.0000E+00  0.0000E+00
    -58.140  0.0000E+00  0.0000E+00
    -57.891  0.0000E+00  0.0000E+00
    -57.642  0.3345E-09  0.8335E-10
    -57.393  0.1322E-02  0.3294E-03
    -57.144  0.2730E+00  0.6837E-01
    -56.894  0.2068E+00  0.1199E+00
    -56.645  0.3921E-03  0.1200E+00
    -56.396  0.2023E-10  0.1200E+00
    -56.147  0.0000E+00  0.1200E+00
    -55.898  0.0000E+00  0.1200E+00
    -55.648  0.0000E+00  0.1200E+00
    -55.399  0.0000E+00  0.1200E+00
    -55.150  0.0000E+00  0.1200E+00
    -54.901  0.0000E+00  0.1200E+00
    -54.652  0.0000E+00  0.1200E+00
    -54.402  0.0000E+00  0.1200E+00
    -54.153  0.0000E+00  0.1200E+00
    -53.904  0.0000E+00  0.1200E+00
    -53.655  0.0000E+00  0.1200E+00
    -53.406  0.0000E+00  0.1200E+00
    -53.156  0.0000E+00  0.1200E+00
    -52.907  0.0000E+00  0.1200E+00
    -52.658  0.0000E+00  0.1200E+00
    -52.409  0.0000E+00  0.1200E+00
    -52.159  0.0000E+00  0.1200E+00
    -51.910  0.0000E+00  0.1200E+00
    -51.661  0.0000E+00  0.1200E+00
    -51.412  0.0000E+00  0.1200E+00
    -51.163  0.0000E+00  0.1200E+00
    -50.913  0.0000E+00  0.1200E+00
    -50.664  0.0000E+00  0.1200E+00
    -50.415  0.0000E+00  0.1200E+00
    -50.166  0.0000E+00  0.1200E+00
    -49.917  0.0000E+00  0.1200E+00
    -49.667  0.0000E+00  0.1200E+00
    -49.418  0.0000E+00  0.1200E+00
    -49.169  0.0000E+00  0.1200E+00
    -48.920  0.0000E+00  0.1200E+00
    -48.671  0.0000E+00  0.1200E+00
    -48.421  0.0000E+00  0.1200E+00
    -48.172  0.0000E+00  0.1200E+00
    -47.923  0.0000E+00  0.1200E+00
    -47.674  0.0000E+00  0.1200E+00
    -47.425  0.0000E+00  0.1200E+00
    -47.175  0.0000E+00  0.1200E+00
    -46.926  0.0000E+00  0.1200E+00
    -46.677  0.0000E+00  0.1200E+00
    -46.428  0.0000E+00  0.1200E+00
    -46.178  0.0000E+00  0.1200E+00
    -45.929  0.0000E+00  0.1200E+00
    -45.680  0.0000E+00  0.1200E+00
    -45.431  0.0000E+00  0.1200E+00
    -45.182  0.0000E+00  0.1200E+00
    -44.932  0.0000E+00  0.1200E+00
    -44.683  0.0000E+00  0.1200E+00
    -44.434  0.0000E+00  0.1200E+00
    -44.185  0.0000E+00  0.1200E+00
    -43.936  0.0000E+00  0.1200E+00
    -43.686  0.0000E+00  0.1200E+00
    -43.437  0.0000E+00  0.1200E+00
    -43.188  0.0000E+00  0.1200E+00
    -42.939  0.0000E+00  0.1200E+00
    -42.690  0.0000E+00  0.1200E+00
    -42.440  0.0000E+00  0.1200E+00
    -42.191  0.9516E-14  0.1200E+00
    -41.942  0.5768E-05  0.1200E+00
    -41.693  0.3136E-01  0.1278E+00
    -41.444  0.4901E-01  0.1400E+00
    -41.194  0.1369E+00  0.1741E+00
    -40.945  0.3090E+00  0.2511E+00
    -40.696  0.3553E-01  0.2600E+00
    -40.447  0.1113E-05  0.2600E+00
    -40.197  0.3386E-15  0.2600E+00
    -39.948  0.0000E+00  0.2600E+00
    -39.699  0.0000E+00  0.2600E+00
    -39.450  0.0000E+00  0.2600E+00
    -39.201  0.0000E+00  0.2600E+00
    -38.951  0.0000E+00  0.2600E+00
    -38.702  0.0000E+00  0.2600E+00
    -38.453  0.0000E+00  0.2600E+00
    -38.204  0.0000E+00  0.2600E+00
    -37.955  0.0000E+00  0.2600E+00
    -37.705  0.0000E+00  0.2600E+00
    -37.456  0.0000E+00  0.2600E+00
    -37.207  0.0000E+00  0.2600E+00
    -36.958  0.0000E+00  0.2600E+00
    -36.709  0.0000E+00  0.2600E+00
    -36.459  0.0000E+00  0.2600E+00
    -36.210  0.0000E+00  0.2600E+00
    -35.961  0.0000E+00  0.2600E+00
    -35.712  0.0000E+00  0.2600E+00
    -35.463  0.0000E+00  0.2600E+00
    -35.213  0.0000E+00  0.2600E+00
    -34.964  0.0000E+00  0.2600E+00
    -34.715  0.0000E+00  0.2600E+00
    -34.466  0.0000E+00  0.2600E+00
    -34.216  0.0000E+00  0.2600E+00
    -33.967  0.0000E+00  0.2600E+00
    -33.718  0.0000E+00  0.2600E+00
    -33.469  0.0000E+00  0.2600E+00
    -33.220  0.0000E+00  0.2600E+00
    -32.970  0.0000E+00  0.2600E+00
    -32.721  0.0000E+00  0.2600E+00
    -32.472  0.1040E-11  0.2600E+00
    -32.223  0.6962E-04  0.2600E+00
    -31.974  0.8307E-01  0.2807E+00
    -31.724  0.4350E+00  0.3891E+00
    -31.475  0.7829E+00  0.5842E+00
    -31.226  0.3713E+00  0.6768E+00
    -30.977  0.9980E+00  0.9255E+00
    -30.728  0.2187E+00  0.9800E+00
    -30.478  0.5628E-04  0.9800E+00
    -30.229  0.2608E-12  0.9800E+00
    -29.980  0.0000E+00  0.9800E+00
    -29.731  0.0000E+00  0.9800E+00
    -29.482  0.0000E+00  0.9800E+00
    -29.232  0.0000E+00  0.9800E+00
    -28.983  0.0000E+00  0.9800E+00
    -28.734  0.0000E+00  0.9800E+00
    -28.485  0.4240E-13  0.9800E+00
    -28.235  0.1308E-04  0.9800E+00
    -27.986  0.5777E-01  0.9944E+00
    -27.737  0.3325E+00  0.1077E+01
    -27.488  0.6818E+00  0.1247E+01
    -27.239  0.3472E+00  0.1334E+01
    -26.989  0.2524E-01  0.1340E+01
    -26.740  0.5144E-06  0.1340E+01
    -26.491  0.0000E+00  0.1340E+01
    -26.242  0.0000E+00  0.1340E+01
    -25.993  0.0000E+00  0.1340E+01
    -25.743  0.0000E+00  0.1340E+01
    -25.494  0.0000E+00  0.1340E+01
    -25.245  0.0000E+00  0.1340E+01
    -24.996  0.0000E+00  0.1340E+01
    -24.747  0.0000E+00  0.1340E+01
    -24.497  0.0000E+00  0.1340E+01
    -24.248  0.0000E+00  0.1340E+01
    -23.999  0.6469E-08  0.1340E+01
    -23.750  0.3526E-02  0.1341E+01
    -23.501  0.2278E+00  0.1398E+01
    -23.251  0.4810E+00  0.1518E+01
    -23.002  0.4142E+00  0.1621E+01
    -22.753  0.3185E+00  0.1700E+01
    -22.504  0.1969E+00  0.1749E+01
    -22.254  0.4339E-01  0.1760E+01
    -22.005  0.1533E-05  0.1760E+01
    -21.756  0.5188E-15  0.1760E+01
    -21.507  0.0000E+00  0.1760E+01
    -21.258  0.0000E+00  0.1760E+01
    -21.008  0.0000E+00  0.1760E+01
    -20.759  0.0000E+00  0.1760E+01
    -20.510  0.1849E-11  0.1760E+01
    -20.261  0.9009E-04  0.1760E+01
    -20.012  0.8400E-01  0.1781E+01
    -19.762  0.1636E+00  0.1822E+01
    -19.513  0.5375E+00  0.1956E+01
    -19.264  0.6401E+00  0.2115E+01
    -19.015  0.2485E+00  0.2177E+01
    -18.766  0.1157E-01  0.2180E+01
    -18.516  0.1754E-06  0.2180E+01
    -18.267  0.0000E+00  0.2180E+01
    -18.018  0.0000E+00  0.2180E+01
    -17.769  0.0000E+00  0.2180E+01
    -17.520  0.0000E+00  0.2180E+01
    -17.270  0.0000E+00  0.2180E+01
    -17.021  0.0000E+00  0.2180E+01
    -16.772  0.0000E+00  0.2180E+01
    -16.523  0.0000E+00  0.2180E+01
    -16.273  0.0000E+00  0.2180E+01
    -16.024  0.0000E+00  0.2180E+01
    -15.775  0.0000E+00  0.2180E+01
    -15.526  0.0000E+00  0.2180E+01
    -15.277  0.0000E+00  0.2180E+01
    -15.027  0.0000E+00  0.2180E+01
    -14.778  0.0000E+00  0.2180E+01
    -14.529  0.0000E+00  0.2180E+01
    -14.280  0.0000E+00  0.2180E+01
    -14.031  0.0000E+00  0.2180E+01
    -13.781  0.0000E+00  0.2180E+01
    -13.532  0.0000E+00  0.2180E+01
    -13.283  0.0000E+00  0.2180E+01
    -13.034  0.0000E+00  0.2180E+01
    -12.785  0.0000E+00  0.2180E+01
    -12.535  0.0000E+00  0.2180E+01
    -12.286  0.0000E+00  0.2180E+01
    -12.037  0.0000E+00  0.2180E+01
    -11.788  0.0000E+00  0.2180E+01
    -11.539  0.0000E+00  0.2180E+01
    -11.289  0.0000E+00  0.2180E+01
    -11.040  0.0000E+00  0.2180E+01
    -10.791  0.0000E+00  0.2180E+01
    -10.542  0.0000E+00  0.2180E+01
    -10.292  0.0000E+00  0.2180E+01
    -10.043  0.0000E+00  0.2180E+01
     -9.794  0.0000E+00  0.2180E+01
     -9.545  0.2623E-16  0.2180E+01
     -9.296  0.6721E-07  0.2180E+01
     -9.046  0.2106E-02  0.2181E+01
     -8.797  0.5162E-01  0.2193E+01
     -8.548  0.4000E-01  0.2203E+01
     -8.299  0.7522E-01  0.2222E+01
     -8.050  0.1200E+00  0.2252E+01
     -7.800  0.1491E+00  0.2289E+01
     -7.551  0.2361E+00  0.2348E+01
     -7.302  0.1869E+00  0.2395E+01
     -7.053  0.4321E-01  0.2405E+01
     -6.804  0.9138E-01  0.2428E+01
     -6.554  0.4768E-01  0.2440E+01
     -6.305  0.4473E-04  0.2440E+01
     -6.056  0.5550E-12  0.2440E+01
     -5.807  0.0000E+00  0.2440E+01
     -5.558  0.4364E-13  0.2440E+01
     -5.308  0.4048E-05  0.2440E+01
     -5.059  0.9780E-02  0.2442E+01
     -4.810  0.6544E-01  0.2459E+01
     -4.561  0.5984E-01  0.2474E+01
     -4.311  0.9107E-01  0.2496E+01
     -4.062  0.9547E-01  0.2520E+01
     -3.813  0.2260E+00  0.2576E+01
     -3.564  0.2373E+00  0.2636E+01
     -3.315  0.2789E+00  0.2705E+01
     -3.065  0.1638E+00  0.2746E+01
     -2.816  0.1712E+00  0.2789E+01
     -2.567  0.1030E+00  0.2814E+01
     -2.318  0.2250E-01  0.2820E+01
     -2.069  0.5335E-03  0.2820E+01
     -1.819  0.1069E-07  0.2820E+01
     -1.570  0.0000E+00  0.2820E+01
     -1.321  0.0000E+00  0.2820E+01
     -1.072  0.7170E-11  0.2820E+01
     -0.823  0.3007E-04  0.2820E+01
     -0.573  0.5403E-02  0.2821E+01
     -0.324  0.4549E-01  0.2833E+01
     -0.075  0.9044E-01  0.2855E+01
      0.174  0.8811E-01  0.2877E+01
      0.424  0.9637E-01  0.2901E+01
      0.673  0.1762E+00  0.2945E+01
      0.922  0.2323E+00  0.3003E+01
      1.171  0.2734E+00  0.3071E+01
      1.420  0.2665E+00  0.3138E+01
      1.670  0.3121E+00  0.3215E+01
      1.919  0.3299E+00  0.3298E+01
      2.168  0.3475E+00  0.3384E+01
      2.417  0.4208E+00  0.3489E+01
      2.666  0.4902E+00  0.3611E+01
      2.916  0.5400E+00  0.3746E+01
      3.165  0.5624E+00  0.3886E+01
      3.414  0.5493E+00  0.4023E+01
      3.663  0.5687E+00  0.4164E+01
      3.912  0.5369E+00  0.4298E+01
      4.162  0.4554E+00  0.4412E+01
      4.411  0.3798E+00  0.4506E+01
      4.660  0.3177E+00  0.4586E+01
      4.909  0.2490E+00  0.4648E+01
      5.158  0.1571E+00  0.4687E+01
      5.408  0.1671E+00  0.4728E+01
      5.657  0.9227E-01  0.4751E+01
      5.906  0.1380E+00  0.4786E+01
      6.155  0.1468E+00  0.4822E+01
      6.405  0.1412E+00  0.4858E+01
      6.654  0.1955E+00  0.4906E+01
      6.903  0.1837E+00  0.4952E+01
      7.152  0.1885E+00  0.4999E+01
      7.401  0.2331E+00  0.5057E+01
      7.651  0.2159E+00  0.5111E+01
      7.900  0.2019E+00  0.5161E+01
      8.149  0.2997E+00  0.5236E+01
      8.398  0.3900E+00  0.5333E+01
      8.647  0.4129E+00  0.5436E+01
      8.897  0.4229E+00  0.5541E+01
      9.146  0.3937E+00  0.5640E+01
      9.395  0.4186E+00  0.5744E+01
      9.644  0.4209E+00  0.5849E+01
      9.893  0.4250E+00  0.5955E+01
     10.143  0.4120E+00  0.6057E+01
     10.392  0.3711E+00  0.6150E+01
     10.641  0.3043E+00  0.6226E+01
     10.890  0.5707E-01  0.6240E+01
     11.139  0.1694E-03  0.6240E+01
     11.389  0.3249E-10  0.6240E+01
     11.638  0.0000E+00  0.6240E+01
     11.887  0.0000E+00  0.6240E+01
     12.136  0.0000E+00  0.6240E+01
     12.386  0.0000E+00  0.6240E+01
     12.635  0.0000E+00  0.6240E+01
     12.884  0.0000E+00  0.6240E+01
     13.133  0.0000E+00  0.6240E+01
     13.382  0.0000E+00  0.6240E+01
     13.632  0.0000E+00  0.6240E+01
     13.881  0.0000E+00  0.6240E+01
     14.130  0.0000E+00  0.6240E+01
