   2   2   0   0
  0.1763826E+02  0.2950600E-09  0.2950600E-09  0.4678800E-09  0.5000000E-15
  1.000000000000000E-004
  CAR 
 HECN                                    
     33.29136558    -30.46120546  301      5.88772410      1.00000000
    -30.461  0.0000E+00  0.0000E+00
    -30.249  0.0000E+00  0.0000E+00
    -30.036  0.0000E+00  0.0000E+00
    -29.824  0.0000E+00  0.0000E+00
    -29.611  0.0000E+00  0.0000E+00
    -29.399  0.0000E+00  0.0000E+00
    -29.186  0.0000E+00  0.0000E+00
    -28.974  0.0000E+00  0.0000E+00
    -28.761  0.0000E+00  0.0000E+00
    -28.549  0.0000E+00  0.0000E+00
    -28.336  0.0000E+00  0.0000E+00
    -28.124  0.4063E-17  0.8635E-18
    -27.911  0.1525E-08  0.3242E-09
    -27.699  0.9770E-04  0.2076E-04
    -27.486  0.8875E-02  0.1907E-02
    -27.274  0.1156E+00  0.2647E-01
    -27.061  0.1422E+00  0.5668E-01
    -26.849  0.2342E+00  0.1064E+00
    -26.636  0.6354E-01  0.1200E+00
    -26.424  0.2322E-03  0.1200E+00
    -26.211  0.7871E-09  0.1200E+00
    -25.999  0.0000E+00  0.1200E+00
    -25.786  0.0000E+00  0.1200E+00
    -25.574  0.0000E+00  0.1200E+00
    -25.361  0.0000E+00  0.1200E+00
    -25.148  0.0000E+00  0.1200E+00
    -24.936  0.0000E+00  0.1200E+00
    -24.723  0.0000E+00  0.1200E+00
    -24.511  0.0000E+00  0.1200E+00
    -24.298  0.0000E+00  0.1200E+00
    -24.086  0.0000E+00  0.1200E+00
    -23.873  0.0000E+00  0.1200E+00
    -23.661  0.0000E+00  0.1200E+00
    -23.448  0.0000E+00  0.1200E+00
    -23.236  0.0000E+00  0.1200E+00
    -23.023  0.0000E+00  0.1200E+00
    -22.811  0.0000E+00  0.1200E+00
    -22.598  0.0000E+00  0.1200E+00
    -22.386  0.0000E+00  0.1200E+00
    -22.173  0.0000E+00  0.1200E+00
    -21.961  0.0000E+00  0.1200E+00
    -21.748  0.0000E+00  0.1200E+00
    -21.536  0.0000E+00  0.1200E+00
    -21.323  0.0000E+00  0.1200E+00
    -21.111  0.0000E+00  0.1200E+00
    -20.898  0.0000E+00  0.1200E+00
    -20.686  0.0000E+00  0.1200E+00
    -20.473  0.0000E+00  0.1200E+00
    -20.261  0.0000E+00  0.1200E+00
    -20.048  0.0000E+00  0.1200E+00
    -19.836  0.0000E+00  0.1200E+00
    -19.623  0.0000E+00  0.1200E+00
    -19.411  0.0000E+00  0.1200E+00
    -19.198  0.0000E+00  0.1200E+00
    -18.986  0.0000E+00  0.1200E+00
    -18.773  0.0000E+00  0.1200E+00
    -18.561  0.0000E+00  0.1200E+00
    -18.348  0.0000E+00  0.1200E+00
    -18.136  0.0000E+00  0.1200E+00
    -17.923  0.0000E+00  0.1200E+00
    -17.711  0.0000E+00  0.1200E+00
    -17.498  0.0000E+00  0.1200E+00
    -17.286  0.0000E+00  0.1200E+00
    -17.073  0.0000E+00  0.1200E+00
    -16.861  0.0000E+00  0.1200E+00
    -16.648  0.0000E+00  0.1200E+00
    -16.436  0.0000E+00  0.1200E+00
    -16.223  0.0000E+00  0.1200E+00
    -16.011  0.0000E+00  0.1200E+00
    -15.798  0.0000E+00  0.1200E+00
    -15.586  0.0000E+00  0.1200E+00
    -15.373  0.0000E+00  0.1200E+00
    -15.161  0.0000E+00  0.1200E+00
    -14.948  0.0000E+00  0.1200E+00
    -14.736  0.0000E+00  0.1200E+00
    -14.523  0.0000E+00  0.1200E+00
    -14.311  0.0000E+00  0.1200E+00
    -14.098  0.0000E+00  0.1200E+00
    -13.886  0.0000E+00  0.1200E+00
    -13.673  0.0000E+00  0.1200E+00
    -13.461  0.0000E+00  0.1200E+00
    -13.248  0.0000E+00  0.1200E+00
    -13.036  0.0000E+00  0.1200E+00
    -12.823  0.0000E+00  0.1200E+00
    -12.610  0.0000E+00  0.1200E+00
    -12.398  0.0000E+00  0.1200E+00
    -12.185  0.0000E+00  0.1200E+00
    -11.973  0.0000E+00  0.1200E+00
    -11.760  0.0000E+00  0.1200E+00
    -11.548  0.0000E+00  0.1200E+00
    -11.335  0.0000E+00  0.1200E+00
    -11.123  0.0000E+00  0.1200E+00
    -10.910  0.0000E+00  0.1200E+00
    -10.698  0.0000E+00  0.1200E+00
    -10.485  0.0000E+00  0.1200E+00
    -10.273  0.0000E+00  0.1200E+00
    -10.060  0.0000E+00  0.1200E+00
     -9.848  0.0000E+00  0.1200E+00
     -9.635  0.0000E+00  0.1200E+00
     -9.423  0.0000E+00  0.1200E+00
     -9.210  0.0000E+00  0.1200E+00
     -8.998  0.0000E+00  0.1200E+00
     -8.785  0.0000E+00  0.1200E+00
     -8.573  0.0000E+00  0.1200E+00
     -8.360  0.0000E+00  0.1200E+00
     -8.148  0.0000E+00  0.1200E+00
     -7.935  0.0000E+00  0.1200E+00
     -7.723  0.0000E+00  0.1200E+00
     -7.510  0.0000E+00  0.1200E+00
     -7.298  0.0000E+00  0.1200E+00
     -7.085  0.0000E+00  0.1200E+00
     -6.873  0.0000E+00  0.1200E+00
     -6.660  0.0000E+00  0.1200E+00
     -6.448  0.0000E+00  0.1200E+00
     -6.235  0.0000E+00  0.1200E+00
     -6.023  0.0000E+00  0.1200E+00
     -5.810  0.0000E+00  0.1200E+00
     -5.598  0.0000E+00  0.1200E+00
     -5.385  0.0000E+00  0.1200E+00
     -5.173  0.0000E+00  0.1200E+00
     -4.960  0.0000E+00  0.1200E+00
     -4.748  0.0000E+00  0.1200E+00
     -4.535  0.0000E+00  0.1200E+00
     -4.323  0.0000E+00  0.1200E+00
     -4.110  0.0000E+00  0.1200E+00
     -3.898  0.0000E+00  0.1200E+00
     -3.685  0.0000E+00  0.1200E+00
     -3.473  0.0000E+00  0.1200E+00
     -3.260  0.0000E+00  0.1200E+00
     -3.048  0.0000E+00  0.1200E+00
     -2.835  0.0000E+00  0.1200E+00
     -2.623  0.0000E+00  0.1200E+00
     -2.410  0.0000E+00  0.1200E+00
     -2.198  0.0000E+00  0.1200E+00
     -1.985  0.0000E+00  0.1200E+00
     -1.773  0.0000E+00  0.1200E+00
     -1.560  0.0000E+00  0.1200E+00
     -1.348  0.0000E+00  0.1200E+00
     -1.135  0.0000E+00  0.1200E+00
     -0.923  0.0000E+00  0.1200E+00
     -0.710  0.1844E-13  0.1200E+00
     -0.497  0.2593E-06  0.1200E+00
     -0.285  0.7507E-03  0.1202E+00
     -0.072  0.2688E-02  0.1207E+00
      0.140  0.4633E-04  0.1207E+00
      0.353  0.2284E-08  0.1207E+00
      0.565  0.1598E-03  0.1208E+00
      0.778  0.5720E-02  0.1220E+00
      0.990  0.1091E-02  0.1222E+00
      1.203  0.2082E-06  0.1222E+00
      1.415  0.7778E-14  0.1222E+00
      1.628  0.0000E+00  0.1222E+00
      1.840  0.1315E-11  0.1222E+00
      2.053  0.6383E-05  0.1222E+00
      2.265  0.7034E-02  0.1237E+00
      2.478  0.1381E-01  0.1267E+00
      2.690  0.1534E-01  0.1299E+00
      2.903  0.3312E-01  0.1370E+00
      3.115  0.4702E-03  0.1371E+00
      3.328  0.2829E-02  0.1377E+00
      3.540  0.5924E-03  0.1378E+00
      3.753  0.1201E-01  0.1403E+00
      3.965  0.2961E-01  0.1466E+00
      4.178  0.1742E-01  0.1503E+00
      4.390  0.1543E-01  0.1536E+00
      4.603  0.4797E-01  0.1638E+00
      4.815  0.6185E-01  0.1769E+00
      5.028  0.2482E-01  0.1822E+00
      5.240  0.1223E-01  0.1848E+00
      5.453  0.3257E-01  0.1917E+00
      5.665  0.1812E-01  0.1956E+00
      5.878  0.1944E-01  0.1997E+00
      6.090  0.1385E-01  0.2027E+00
      6.303  0.2664E-01  0.2083E+00
      6.515  0.6442E-01  0.2220E+00
      6.728  0.2511E-01  0.2274E+00
      6.940  0.1065E+00  0.2500E+00
      7.153  0.3161E-01  0.2567E+00
      7.365  0.1121E-01  0.2591E+00
      7.578  0.2007E-01  0.2634E+00
      7.790  0.1726E-02  0.2637E+00
      8.003  0.2313E-01  0.2686E+00
      8.215  0.3798E-01  0.2767E+00
      8.428  0.2245E-01  0.2815E+00
      8.640  0.4338E-01  0.2907E+00
      8.853  0.7735E-01  0.3071E+00
      9.065  0.6427E-01  0.3208E+00
      9.278  0.5196E-01  0.3318E+00
      9.490  0.2159E-01  0.3364E+00
      9.703  0.6352E-02  0.3378E+00
      9.915  0.4352E-05  0.3378E+00
     10.128  0.4793E-06  0.3378E+00
     10.340  0.4581E-02  0.3388E+00
     10.553  0.3566E-01  0.3463E+00
     10.765  0.1583E-02  0.3467E+00
     10.978  0.3637E-07  0.3467E+00
     11.190  0.5046E-15  0.3467E+00
     11.403  0.3268E-07  0.3467E+00
     11.615  0.5365E-03  0.3468E+00
     11.828  0.6038E-02  0.3481E+00
     12.041  0.3170E-02  0.3487E+00
     12.253  0.1126E-01  0.3511E+00
     12.466  0.2112E-01  0.3556E+00
     12.678  0.6679E-02  0.3570E+00
     12.891  0.1515E-04  0.3570E+00
     13.103  0.6282E-02  0.3584E+00
     13.316  0.7633E-02  0.3600E+00
     13.528  0.8314E-02  0.3618E+00
     13.741  0.1265E-01  0.3645E+00
     13.953  0.1383E-01  0.3674E+00
     14.166  0.7036E-02  0.3689E+00
     14.378  0.6662E-04  0.3689E+00
     14.591  0.2776E-02  0.3695E+00
     14.803  0.6491E-03  0.3696E+00
     15.016  0.1175E-02  0.3699E+00
     15.228  0.1308E-01  0.3727E+00
     15.441  0.1876E-01  0.3766E+00
     15.653  0.2457E-02  0.3772E+00
     15.866  0.4472E-01  0.3867E+00
     16.078  0.2431E-01  0.3918E+00
     16.291  0.6408E-04  0.3919E+00
     16.503  0.6745E-10  0.3919E+00
     16.716  0.1411E-05  0.3919E+00
     16.928  0.2073E-02  0.3923E+00
     17.141  0.6124E-02  0.3936E+00
     17.353  0.3541E-01  0.4011E+00
     17.566  0.1125E-01  0.4035E+00
     17.778  0.9095E-03  0.4037E+00
     17.991  0.1358E-03  0.4037E+00
     18.203  0.1030E-01  0.4059E+00
     18.416  0.9618E-02  0.4080E+00
     18.628  0.1657E-01  0.4115E+00
     18.841  0.1642E-01  0.4150E+00
     19.053  0.3026E-01  0.4214E+00
     19.266  0.5084E-03  0.4215E+00
     19.478  0.1052E-01  0.4237E+00
     19.691  0.3313E-02  0.4245E+00
     19.903  0.1849E-01  0.4284E+00
     20.116  0.4981E-01  0.4390E+00
     20.328  0.1497E-02  0.4393E+00
     20.541  0.2964E-02  0.4399E+00
     20.753  0.3958E-03  0.4400E+00
     20.966  0.1247E-02  0.4403E+00
     21.178  0.1812E-01  0.4441E+00
     21.391  0.1548E-02  0.4444E+00
     21.603  0.8548E-02  0.4463E+00
     21.816  0.4210E-01  0.4552E+00
     22.028  0.1194E-01  0.4577E+00
     22.241  0.1531E-03  0.4578E+00
     22.453  0.5048E-08  0.4578E+00
     22.666  0.4103E-03  0.4579E+00
     22.878  0.1695E-01  0.4615E+00
     23.091  0.3513E-01  0.4689E+00
     23.303  0.5869E-01  0.4814E+00
     23.516  0.3145E-01  0.4881E+00
     23.728  0.2861E-03  0.4881E+00
     23.941  0.4604E-04  0.4882E+00
     24.153  0.1000E-01  0.4903E+00
     24.366  0.1426E-01  0.4933E+00
     24.579  0.5380E-02  0.4945E+00
     24.791  0.3990E-01  0.5029E+00
     25.004  0.1709E-01  0.5066E+00
     25.216  0.4598E-03  0.5067E+00
     25.429  0.9549E-03  0.5069E+00
     25.641  0.1209E-01  0.5094E+00
     25.854  0.1660E-02  0.5098E+00
     26.066  0.5945E-02  0.5111E+00
     26.279  0.5434E-03  0.5112E+00
     26.491  0.1613E-01  0.5146E+00
     26.704  0.4500E-02  0.5156E+00
     26.916  0.1581E-05  0.5156E+00
     27.129  0.7867E-03  0.5157E+00
     27.341  0.2624E-01  0.5213E+00
     27.554  0.3530E-01  0.5288E+00
     27.766  0.4497E-03  0.5289E+00
     27.979  0.4364E-01  0.5382E+00
     28.191  0.9493E-01  0.5583E+00
     28.404  0.8213E-03  0.5585E+00
     28.616  0.2312E-08  0.5585E+00
     28.829  0.0000E+00  0.5585E+00
     29.041  0.0000E+00  0.5585E+00
     29.254  0.0000E+00  0.5585E+00
     29.466  0.0000E+00  0.5585E+00
     29.679  0.0000E+00  0.5585E+00
     29.891  0.4240E-14  0.5585E+00
     30.104  0.1452E-06  0.5585E+00
     30.316  0.9565E-03  0.5587E+00
     30.529  0.5820E-02  0.5600E+00
     30.741  0.1946E-03  0.5600E+00
     30.954  0.3051E-08  0.5600E+00
     31.166  0.7740E-17  0.5600E+00
     31.379  0.0000E+00  0.5600E+00
     31.591  0.0000E+00  0.5600E+00
     31.804  0.0000E+00  0.5600E+00
     32.016  0.0000E+00  0.5600E+00
     32.229  0.0000E+00  0.5600E+00
     32.441  0.0000E+00  0.5600E+00
     32.654  0.0000E+00  0.5600E+00
     32.866  0.0000E+00  0.5600E+00
     33.079  0.0000E+00  0.5600E+00
     33.291  0.0000E+00  0.5600E+00
