    2    2  100    1
  0.1763826E+02  0.2950600E-09  0.2950600E-09  0.4678800E-09  0.5000000E-15
  1.000000000000000E-004
  CAR 
 HECN                                    
     20      6     28
 
  0.0000000E+00  0.0000000E+00  0.0000000E+00  0.3703704E-01
      1        -27.563361   1.000000
      2        -26.913645   1.000000
      3        -26.913629   1.000000
      4        -26.809680   1.000000
      5        -26.794440   1.000000
      6        -26.794424   1.000000
      7         -0.229288   1.000000
      8          3.259573   1.000000
      9          6.635333   0.000000
     10          6.635340   0.000000
     11          6.993865   0.000000
     12          7.025474   0.000000
     13          7.189449   0.000000
     14          7.189453   0.000000
     15          7.359899   0.000000
     16          7.359899   0.000000
     17          9.032337   0.000000
     18          9.032339   0.000000
     19         14.527549   0.000000
     20         20.455446   0.000000
     21         23.346661   0.000000
     22         24.102825   0.000000
     23         24.888661   0.000000
     24         24.888664   0.000000
     25         25.940595   0.000000
     26         25.940615   0.000000
     27         27.336321   0.000000
     28         27.336339   0.000000
 
  0.3333333E+00 -0.2142231E-16  0.0000000E+00  0.2222222E+00
      1        -27.359465   1.000000
      2        -27.233535   1.000000
      3        -27.107539   1.000000
      4        -27.018550   1.000000
      5        -26.928026   1.000000
      6        -26.835922   1.000000
      7          2.294927   1.000000
      8          4.151130   1.000000
      9          4.555256   1.000000
     10          5.226097   1.000000
     11          6.453062   0.000000
     12          6.810864   0.000000
     13          6.843575   0.000000
     14          8.398126   0.000000
     15          8.627227   0.000000
     16          8.674073   0.000000
     17          9.453332   0.000000
     18         13.546573   0.000000
     19         13.923284   0.000000
     20         15.344965   0.000000
     21         18.454431   0.000000
     22         19.892591   0.000000
     23         21.076037   0.000000
     24         22.811720   0.000000
     25         24.180110   0.000000
     26         26.435341   0.000000
     27         28.012132   0.000000
     28         28.013555   0.000000
 
  0.3333333E+00  0.3333333E+00  0.0000000E+00  0.7407407E-01
      1        -27.273834   1.000000
      2        -27.148389   1.000000
      3        -27.148388   1.000000
      4        -27.122099   1.000000
      5        -27.122099   1.000000
      6        -27.012768   1.000000
      7          4.172206   1.000000
      8          4.449495   1.000000
      9          4.449503   1.000000
     10          4.553506   1.000000
     11          6.172586   0.000028
     12          6.172588   0.000028
     13          7.517192   0.000000
     14          9.020129   0.000000
     15          9.020140   0.000000
     16          9.330162   0.000000
     17         11.716309   0.000000
     18         12.100298   0.000000
     19         12.100316   0.000000
     20         16.965798   0.000000
     21         18.155961   0.000000
     22         18.155964   0.000000
     23         18.670761   0.000000
     24         19.427067   0.000000
     25         19.427099   0.000000
     26         28.013027   0.000000
     27         28.013027   0.000000
     28         30.393521   0.000000
 
  0.0000000E+00  0.0000000E+00  0.3333333E+00  0.7407407E-01
      1        -27.382238   1.000000
      2        -27.005749   1.000000
      3        -26.883979   1.000000
      4        -26.883963   1.000000
      5        -26.824379   1.000000
      6        -26.824363   1.000000
      7          0.706239   1.000000
      8          2.660670   1.000000
      9          6.080818   0.003159
     10          6.400285   0.000000
     11          6.400291   0.000000
     12          6.506768   0.000000
     13          6.736338   0.000000
     14          6.736343   0.000000
     15          8.202718   0.000000
     16          8.202719   0.000000
     17          9.001035   0.000000
     18          9.001036   0.000000
     19         17.486209   0.000000
     20         19.966461   0.000000
     21         21.731881   0.000000
     22         23.094475   0.000000
     23         24.829430   0.000000
     24         24.829438   0.000000
     25         25.533698   0.000000
     26         25.533713   0.000000
     27         28.012525   0.000000
     28         28.012735   0.000000
 
  0.3333333E+00 -0.2142231E-16  0.3333333E+00  0.4444444E+00
      1        -27.395237   1.000000
      2        -27.270436   1.000000
      3        -27.051656   1.000000
      4        -26.973396   1.000000
      5        -26.910420   1.000000
      6        -26.882091   1.000000
      7          2.736722   1.000000
      8          3.792363   1.000000
      9          4.821005   1.000000
     10          5.440109   1.000000
     11          6.351762   0.000000
     12          6.874888   0.000000
     13          6.909846   0.000000
     14          7.994231   0.000000
     15          8.654948   0.000000
     16          8.814491   0.000000
     17          9.156439   0.000000
     18         10.427347   0.000000
     19         15.808121   0.000000
     20         17.273257   0.000000
     21         18.884202   0.000000
     22         19.982314   0.000000
     23         21.663257   0.000000
     24         23.097898   0.000000
     25         23.338940   0.000000
     26         24.659373   0.000000
     27         27.388528   0.000000
     28         28.013436   0.000000
 
  0.3333333E+00  0.3333333E+00  0.3333333E+00  0.1481481E+00
      1        -27.336684   1.000000
      2        -27.336684   1.000000
      3        -27.209666   1.000000
      4        -27.079134   1.000000
      5        -26.929666   1.000000
      6        -26.929666   1.000000
      7          4.472619   1.000000
      8          4.656408   1.000000
      9          4.718485   1.000000
     10          4.718491   1.000000
     11          5.840207   0.749204
     12          5.840211   0.749188
     13          7.432009   0.000000
     14          8.152289   0.000000
     15          9.008945   0.000000
     16          9.008951   0.000000
     17         12.415486   0.000000
     18         12.415499   0.000000
     19         13.111681   0.000000
     20         15.112984   0.000000
     21         15.876761   0.000000
     22         15.876771   0.000000
     23         21.866393   0.000000
     24         23.123885   0.000000
     25         23.123907   0.000000
     26         27.241471   0.000000
     27         28.013066   0.000000
     28         28.013066   0.000000
