       N       E                     dE             d eps       ncg     rms          rms(c)
DAV:   1     0.448077777093E+04    0.44808E+04   -0.20804E+05  9480   0.123E+03
DAV:   2     0.225864588955E+03   -0.42549E+04   -0.41239E+04  9240   0.502E+02
DAV:   3    -0.531208162987E+03   -0.75707E+03   -0.72035E+03 14976   0.159E+02
DAV:   4    -0.617253516459E+03   -0.86045E+02   -0.83436E+02 13968   0.564E+01
DAV:   5    -0.632208600465E+03   -0.14955E+02   -0.14584E+02 17448   0.225E+01    0.768E+01
RMM:   6    -0.807772662534E+03   -0.17556E+03   -0.32903E+03 12122   0.832E+01    0.131E+02
RMM:   7    -0.503241140405E+03    0.30453E+03   -0.37015E+02 13197   0.336E+01    0.560E+01
RMM:   8    -0.461925587049E+03    0.41316E+02   -0.70447E+01 12323   0.190E+01    0.243E+01
RMM:   9    -0.459116789443E+03    0.28088E+01   -0.30342E+01 13151   0.847E+00    0.330E+01
RMM:  10    -0.456157144651E+03    0.29596E+01   -0.12675E+01 13256   0.537E+00    0.220E+01
RMM:  11    -0.457530243886E+03   -0.13731E+01   -0.10461E+01 13045   0.412E+00    0.230E+01
RMM:  12    -0.459991938257E+03   -0.24617E+01   -0.10909E+01 13093   0.509E+00    0.365E+01
RMM:  13    -0.455699491661E+03    0.42924E+01   -0.76248E+00 13240   0.410E+00    0.279E+01
RMM:  14    -0.454404861270E+03    0.12946E+01   -0.42696E+00 13347   0.301E+00    0.155E+01
RMM:  15    -0.455675752468E+03   -0.12709E+01   -0.55598E+00 12945   0.297E+00    0.192E+01
RMM:  16    -0.453993525194E+03    0.16822E+01   -0.23640E+00 12987   0.232E+00    0.115E+01
RMM:  17    -0.453769158068E+03    0.22437E+00   -0.13114E+00 13255   0.156E+00    0.121E+01
RMM:  18    -0.453695452687E+03    0.73705E-01   -0.98910E-01 13205   0.137E+00    0.103E+01
RMM:  19    -0.453724706417E+03   -0.29254E-01   -0.89680E-01 13210   0.121E+00    0.109E+01
RMM:  20    -0.453562277979E+03    0.16243E+00   -0.70545E-01 13198   0.113E+00    0.782E+00
RMM:  21    -0.453426959365E+03    0.13532E+00   -0.63904E-01 12974   0.915E-01    0.412E+00
RMM:  22    -0.453410017804E+03    0.16942E-01   -0.38846E-01 12985   0.761E-01    0.369E+00
RMM:  23    -0.453380248388E+03    0.29769E-01   -0.25331E-01 13123   0.512E-01    0.216E+00
RMM:  24    -0.453374630668E+03    0.56177E-02   -0.18997E-01 13270   0.510E-01    0.171E+00
RMM:  25    -0.453375123847E+03   -0.49318E-03   -0.13054E-01 13216   0.447E-01    0.104E+00
RMM:  26    -0.453382288104E+03   -0.71643E-02   -0.12487E-01 13267   0.361E-01    0.121E+00
RMM:  27    -0.453384180849E+03   -0.18927E-02   -0.12082E-01 13485   0.295E-01    0.806E-01
RMM:  28    -0.453388120860E+03   -0.39400E-02   -0.78645E-02 13343   0.249E-01    0.550E-01
RMM:  29    -0.453391886764E+03   -0.37659E-02   -0.56708E-02 13102   0.201E-01    0.404E-01
RMM:  30    -0.453394825773E+03   -0.29390E-02   -0.44618E-02 12502   0.129E-01    0.322E-01
RMM:  31    -0.453397600564E+03   -0.27748E-02   -0.37992E-02 12888   0.109E-01    0.249E-01
RMM:  32    -0.453399954932E+03   -0.23544E-02   -0.31334E-02 12350   0.933E-02    0.173E-01
RMM:  33    -0.453402587851E+03   -0.26329E-02   -0.28476E-02 12485   0.961E-02    0.217E-01
RMM:  34    -0.453404694902E+03   -0.21071E-02   -0.22387E-02 11774   0.833E-02    0.183E-01
RMM:  35    -0.453406365218E+03   -0.16703E-02   -0.18742E-02 11692   0.680E-02    0.114E-01
RMM:  36    -0.453407773704E+03   -0.14085E-02   -0.15521E-02 11318   0.610E-02    0.778E-02
RMM:  37    -0.453408940181E+03   -0.11665E-02   -0.13404E-02 11637   0.493E-02    0.667E-02
RMM:  38    -0.453410019241E+03   -0.10791E-02   -0.11556E-02 11772   0.494E-02    0.385E-02
RMM:  39    -0.453410982433E+03   -0.96319E-03   -0.97952E-03 11356   0.437E-02    0.491E-02
RMM:  40    -0.453411808071E+03   -0.82564E-03   -0.83840E-03 10684   0.380E-02    0.309E-02
RMM:  41    -0.453412494181E+03   -0.68611E-03   -0.71042E-03  9873   0.318E-02    0.206E-02
RMM:  42    -0.453413091130E+03   -0.59695E-03   -0.61445E-03  8484   0.254E-02    0.173E-02
RMM:  43    -0.453413607731E+03   -0.51660E-03   -0.53544E-03 10242   0.266E-02    0.696E-03
RMM:  44    -0.453414062513E+03   -0.45478E-03   -0.46108E-03  9460   0.241E-02    0.105E-02
RMM:  45    -0.453414452482E+03   -0.38997E-03   -0.39502E-03  7337   0.220E-02    0.742E-03
RMM:  46    -0.453414787760E+03   -0.33528E-03   -0.33990E-03  6956   0.203E-02    0.942E-03
RMM:  47    -0.453415082470E+03   -0.29471E-03   -0.29852E-03  6874   0.177E-02    0.521E-03
RMM:  48    -0.453415334756E+03   -0.25229E-03   -0.25588E-03  6576   0.171E-02    0.280E-03
RMM:  49    -0.453415557259E+03   -0.22250E-03   -0.22514E-03  6767   0.164E-02    0.175E-03
RMM:  50    -0.453415749411E+03   -0.19215E-03   -0.19443E-03  6555   0.162E-02    0.234E-03
RMM:  51    -0.453415916933E+03   -0.16752E-03   -0.16959E-03  6157   0.153E-02    0.515E-03
RMM:  52    -0.453416060759E+03   -0.14383E-03   -0.14575E-03  5501   0.122E-02    0.355E-03
RMM:  53    -0.453416187971E+03   -0.12721E-03   -0.12864E-03  5419   0.129E-02    0.504E-03
RMM:  54    -0.453416297734E+03   -0.10976E-03   -0.11102E-03  5018   0.104E-02    0.706E-03
RMM:  55    -0.453416394155E+03   -0.96421E-04   -0.97664E-04  5030   0.109E-02    0.802E-03
RMM:  56    -0.453416478015E+03   -0.83860E-04   -0.85135E-04  5105   0.901E-03    0.807E-03
RMM:  57    -0.453416551580E+03   -0.73565E-04   -0.74670E-04  5118   0.963E-03    0.859E-03
RMM:  58    -0.453416615732E+03   -0.64152E-04   -0.65087E-04  4945   0.798E-03    0.940E-03
RMM:  59    -0.453416672165E+03   -0.56432E-04   -0.57204E-04  4829   0.840E-03    0.104E-02
RMM:  60    -0.453416721392E+03   -0.49227E-04   -0.49807E-04  4730   0.691E-03
   1 F= -.45341672E+03 E0= -.45311056E+03  d E =-.453417E+03
       N       E                     dE             d eps       ncg     rms          rms(c)
DAV:   1    -0.369405101499E+04   -0.32406E+04   -0.98889E+04  9792   0.110E+03    0.372E+02
RMM:   2    -0.126150705857E+04    0.24325E+04   -0.73984E+03 13011   0.288E+02    0.175E+02
RMM:   3    -0.600051767243E+03    0.66146E+03   -0.21197E+03  9835   0.189E+02    0.586E+01
RMM:   4    -0.618426572374E+03   -0.18375E+02   -0.80660E+02 12149   0.688E+01    0.448E+01
RMM:   5    -0.603205246610E+03    0.15221E+02   -0.14559E+02 13055   0.325E+01    0.291E+01
RMM:   6    -0.593619198972E+03    0.95860E+01   -0.58955E+01 14592   0.166E+01    0.160E+01
RMM:   7    -0.598680959912E+03   -0.50618E+01   -0.32275E+01 14371   0.138E+01    0.206E+01
RMM:   8    -0.597400054982E+03    0.12809E+01   -0.20043E+01 14581   0.925E+00    0.963E+00
RMM:   9    -0.599116072458E+03   -0.17160E+01   -0.99688E+00 14647   0.733E+00    0.758E+00
RMM:  10    -0.600622378287E+03   -0.15063E+01   -0.85866E+00 14920   0.516E+00    0.731E+00
RMM:  11    -0.601567261400E+03   -0.94488E+00   -0.59275E+00 14683   0.470E+00    0.493E+00
RMM:  12    -0.602124774851E+03   -0.55751E+00   -0.45625E+00 14959   0.343E+00    0.422E+00
RMM:  13    -0.602278293190E+03   -0.15352E+00   -0.26666E+00 14617   0.330E+00    0.230E+00
RMM:  14    -0.602386217478E+03   -0.10792E+00   -0.16525E+00 14912   0.219E+00    0.103E+00
RMM:  15    -0.602438804677E+03   -0.52587E-01   -0.81934E-01 14937   0.175E+00    0.997E-01
RMM:  16    -0.602466937945E+03   -0.28133E-01   -0.49223E-01 15159   0.112E+00    0.658E-01
RMM:  17    -0.602482981070E+03   -0.16043E-01   -0.24641E-01 15029   0.967E-01    0.332E-01
RMM:  18    -0.602493972125E+03   -0.10991E-01   -0.14669E-01 15216   0.640E-01    0.182E-01
RMM:  19    -0.602500048212E+03   -0.60761E-02   -0.80073E-02 14769   0.566E-01    0.228E-01
RMM:  20    -0.602504062094E+03   -0.40139E-02   -0.50483E-02 15196   0.362E-01    0.239E-01
RMM:  21    -0.602506125750E+03   -0.20637E-02   -0.27078E-02 14935   0.328E-01    0.158E-01
RMM:  22    -0.602507470026E+03   -0.13443E-02   -0.17597E-02 15097   0.235E-01    0.551E-02
RMM:  23    -0.602508196869E+03   -0.72684E-03   -0.95120E-03 14891   0.205E-01    0.796E-02
RMM:  24    -0.602508726836E+03   -0.52997E-03   -0.63489E-03 14913   0.134E-01    0.131E-02
RMM:  25    -0.602509015063E+03   -0.28823E-03   -0.35013E-03 14306   0.121E-01    0.169E-02
RMM:  26    -0.602509224857E+03   -0.20979E-03   -0.24424E-03 14519   0.813E-02    0.112E-02
RMM:  27    -0.602509339581E+03   -0.11472E-03   -0.13798E-03 13965   0.767E-02    0.467E-03
RMM:  28    -0.602509424961E+03   -0.85380E-04   -0.10004E-03 13954   0.517E-02    0.495E-03
RMM:  29    -0.602509471237E+03   -0.46276E-04   -0.56593E-04 12923   0.493E-02    0.673E-03
RMM:  30    -0.602509507555E+03   -0.36318E-04   -0.41576E-04 12847   0.336E-02    0.628E-03
RMM:  31    -0.602509526811E+03   -0.19256E-04   -0.24176E-04 11551   0.341E-02    0.233E-03
RMM:  32    -0.602509542103E+03   -0.15293E-04   -0.18148E-04 11463   0.236E-02    0.269E-03
RMM:  33    -0.602509550345E+03   -0.82418E-05   -0.10789E-04  9852   0.242E-02    0.132E-03
RMM:  34    -0.602509557173E+03   -0.68278E-05   -0.84914E-05  9692   0.195E-02
   2 F= -.60250956E+03 E0= -.60244114E+03  d E =-.149093E+03
       N       E                     dE             d eps       ncg     rms          rms(c)
DAV:   1    -0.957324776884E+03   -0.35482E+03   -0.62370E+03 10344   0.284E+02    0.178E+02
RMM:   2    -0.139387894090E+04   -0.43655E+03   -0.23820E+03 10807   0.118E+02    0.113E+02
RMM:   3    -0.858686834723E+03    0.53519E+03   -0.72707E+02 13023   0.554E+01    0.707E+01
RMM:   4    -0.699083320890E+03    0.15960E+03   -0.14371E+02 11353   0.367E+01    0.486E+01
RMM:   5    -0.648499608809E+03    0.50584E+02   -0.16168E+02 13195   0.240E+01    0.241E+01
RMM:   6    -0.698644099858E+03   -0.50144E+02   -0.38787E+02 13243   0.350E+01    0.681E+01
RMM:   7    -0.656479768175E+03    0.42164E+02   -0.30677E+01 11555   0.168E+01    0.407E+01
RMM:   8    -0.645004051322E+03    0.11476E+02   -0.48155E+01 10622   0.152E+01    0.197E+01
RMM:   9    -0.640750465709E+03    0.42536E+01   -0.69152E+00 12289   0.705E+00    0.966E+00
RMM:  10    -0.640558026341E+03    0.19244E+00   -0.34248E+00 13932   0.300E+00    0.810E+00
RMM:  11    -0.640157004109E+03    0.40102E+00   -0.99219E-01 13375   0.244E+00    0.545E+00
RMM:  12    -0.640141045247E+03    0.15959E-01   -0.58607E-01 14300   0.127E+00    0.528E+00
RMM:  13    -0.639949916358E+03    0.19113E+00   -0.40745E-01 13410   0.141E+00    0.294E+00
RMM:  14    -0.639942352222E+03    0.75641E-02   -0.28856E-01 14032   0.912E-01    0.232E+00
RMM:  15    -0.639968448880E+03   -0.26097E-01   -0.29518E-01 13601   0.110E+00    0.140E+00
RMM:  16    -0.640031557765E+03   -0.63109E-01   -0.35833E-01 13876   0.114E+00    0.201E+00
RMM:  17    -0.640041373211E+03   -0.98154E-02   -0.18007E-01 14160   0.832E-01    0.165E+00
RMM:  18    -0.640017597274E+03    0.23776E-01   -0.92821E-02 13511   0.529E-01    0.638E-01
RMM:  19    -0.640014904720E+03    0.26926E-02   -0.61131E-02 13504   0.428E-01    0.462E-01
RMM:  20    -0.640016291549E+03   -0.13868E-02   -0.26518E-02 14333   0.279E-01    0.478E-01
RMM:  21    -0.640016547533E+03   -0.25598E-03   -0.18989E-02 14105   0.210E-01    0.332E-01
RMM:  22    -0.640018447423E+03   -0.18999E-02   -0.12878E-02 13991   0.203E-01    0.425E-01
RMM:  23    -0.640017454732E+03    0.99269E-03   -0.86053E-03 13158   0.172E-01    0.192E-01
RMM:  24    -0.640017640237E+03   -0.18550E-03   -0.39682E-03 13519   0.117E-01    0.156E-01
RMM:  25    -0.640017859993E+03   -0.21976E-03   -0.32148E-03 12979   0.107E-01    0.207E-01
RMM:  26    -0.640018010632E+03   -0.15064E-03   -0.28168E-03 12710   0.958E-02    0.217E-01
RMM:  27    -0.640017719968E+03    0.29066E-03   -0.95381E-04 12310   0.639E-02    0.112E-01
RMM:  28    -0.640017661528E+03    0.58440E-04   -0.91034E-04 12117   0.515E-02    0.288E-02
RMM:  29    -0.640017676453E+03   -0.14925E-04   -0.33888E-04 10990   0.393E-02    0.150E-02
RMM:  30    -0.640017686334E+03   -0.98812E-05   -0.18635E-04 10104   0.218E-02    0.988E-03
RMM:  31    -0.640017694511E+03   -0.81769E-05   -0.12543E-04  9596   0.199E-02    0.894E-03
RMM:  32    -0.640017697565E+03   -0.30545E-05   -0.72548E-05  8497   0.165E-02
   3 F= -.64001770E+03 E0= -.63992413E+03  d E =-.186601E+03
       N       E                     dE             d eps       ncg     rms          rms(c)
DAV:   1    -0.642000612192E+03   -0.19829E+01   -0.37784E+01  9600   0.221E+01    0.111E+01
RMM:   2    -0.653670375811E+03   -0.11670E+02   -0.28401E+01 10731   0.136E+01    0.399E+01
RMM:   3    -0.641100575984E+03    0.12570E+02   -0.60100E+00 10626   0.706E+00    0.651E+00
RMM:   4    -0.640754057634E+03    0.34652E+00   -0.13540E+00 12063   0.293E+00    0.541E+00
RMM:   5    -0.640653873732E+03    0.10018E+00   -0.58846E-01 11765   0.170E+00    0.476E+00
RMM:   6    -0.640431728347E+03    0.22215E+00   -0.30311E-01 11367   0.149E+00    0.141E+00
RMM:   7    -0.640440175700E+03   -0.84474E-02   -0.12482E-01 12695   0.890E-01    0.204E+00
RMM:   8    -0.640414491370E+03    0.25684E-01   -0.46031E-02 12991   0.513E-01    0.770E-01
RMM:   9    -0.640410768375E+03    0.37230E-02   -0.13082E-02 13461   0.278E-01    0.379E-01
RMM:  10    -0.640411018968E+03   -0.25059E-03   -0.59205E-03 13614   0.150E-01    0.361E-01
RMM:  11    -0.640411260105E+03   -0.24114E-03   -0.33668E-03 13302   0.112E-01    0.253E-01
RMM:  12    -0.640411913406E+03   -0.65330E-03   -0.23578E-03 13341   0.842E-02    0.206E-01
RMM:  13    -0.640412982879E+03   -0.10695E-02   -0.25676E-03 13449   0.899E-02    0.228E-01
RMM:  14    -0.640413261186E+03   -0.27831E-03   -0.25342E-03 13067   0.858E-02    0.114E-01
RMM:  15    -0.640413414556E+03   -0.15337E-03   -0.17772E-03 12850   0.706E-02    0.464E-02
RMM:  16    -0.640413469679E+03   -0.55123E-04   -0.94923E-04 11836   0.464E-02    0.526E-02
RMM:  17    -0.640413497150E+03   -0.27472E-04   -0.53462E-04 11511   0.376E-02    0.448E-02
RMM:  18    -0.640413514458E+03   -0.17308E-04   -0.32399E-04 11149   0.282E-02    0.288E-02
RMM:  19    -0.640413529339E+03   -0.14881E-04   -0.19170E-04 10527   0.235E-02    0.179E-02
RMM:  20    -0.640413538872E+03   -0.95335E-05   -0.12056E-04  9945   0.202E-02    0.903E-03
RMM:  21    -0.640413542663E+03   -0.37907E-05   -0.71980E-05  9200   0.172E-02
   4 F= -.64041354E+03 E0= -.64032238E+03  d E =-.186997E+03
       N       E                     dE             d eps       ncg     rms          rms(c)
DAV:   1    -0.640650341325E+03   -0.23680E+00   -0.48841E+00 10080   0.796E+00    0.415E+00
RMM:   2    -0.642325369287E+03   -0.16750E+01   -0.34440E+00 10794   0.471E+00    0.147E+01
RMM:   3    -0.640518924230E+03    0.18064E+01   -0.85819E-01 10597   0.260E+00    0.210E+00
RMM:   4    -0.640493456001E+03    0.25468E-01   -0.18123E-01 11775   0.112E+00    0.229E+00
RMM:   5    -0.640466953233E+03    0.26503E-01   -0.79810E-02 11617   0.607E-01    0.147E+00
RMM:   6    -0.640444098884E+03    0.22854E-01   -0.38696E-02 11585   0.537E-01    0.416E-01
RMM:   7    -0.640443104600E+03    0.99428E-03   -0.13623E-02 12877   0.293E-01    0.383E-01
RMM:   8    -0.640442620373E+03    0.48423E-03   -0.45543E-03 13386   0.160E-01    0.298E-01
RMM:   9    -0.640442081892E+03    0.53848E-03   -0.16570E-03 12844   0.912E-02    0.114E-01
RMM:  10    -0.640442157876E+03   -0.75984E-04   -0.74394E-04 12601   0.534E-02    0.104E-01
RMM:  11    -0.640442230675E+03   -0.72800E-04   -0.40382E-04 11953   0.393E-02    0.960E-02
RMM:  12    -0.640442295481E+03   -0.64806E-04   -0.26763E-04 11519   0.299E-02    0.765E-02
RMM:  13    -0.640442467135E+03   -0.17165E-03   -0.31756E-04 11812   0.335E-02    0.710E-02
RMM:  14    -0.640442553657E+03   -0.86522E-04   -0.32723E-04 11773   0.345E-02    0.565E-02
RMM:  15    -0.640442588223E+03   -0.34566E-04   -0.26274E-04 11374   0.317E-02    0.153E-02
RMM:  16    -0.640442598199E+03   -0.99761E-05   -0.13949E-04 10304   0.231E-02    0.168E-02
RMM:  17    -0.640442603582E+03   -0.53832E-05   -0.84999E-05  9936   0.198E-02
   5 F= -.64044260E+03 E0= -.64035229E+03  d E =-.187026E+03
       N       E                     dE             d eps       ncg     rms          rms(c)
DAV:   1    -0.638876531515E+03    0.15661E+01   -0.38209E+02  9408   0.656E+01    0.393E+00
RMM:   2    -0.642417754986E+03   -0.35412E+01   -0.37402E+01 13455   0.178E+01    0.440E+00
RMM:   3    -0.642403209952E+03    0.14545E-01   -0.34522E+00 13048   0.578E+00    0.452E+00
RMM:   4    -0.642255261143E+03    0.14795E+00   -0.79665E-01 13975   0.274E+00    0.222E+00
RMM:   5    -0.642235708984E+03    0.19552E-01   -0.35332E-01 13487   0.118E+00    0.180E+00
RMM:   6    -0.642228163036E+03    0.75459E-02   -0.20477E-01 13477   0.994E-01    0.172E+00
RMM:   7    -0.642202559268E+03    0.25604E-01   -0.10663E-01 13708   0.687E-01    0.792E-01
RMM:   8    -0.642204644166E+03   -0.20849E-02   -0.44591E-02 14528   0.478E-01    0.843E-01
RMM:   9    -0.642202001971E+03    0.26422E-02   -0.26351E-02 13677   0.307E-01    0.345E-01
RMM:  10    -0.642201922181E+03    0.79790E-04   -0.13956E-02 14199   0.231E-01    0.226E-01
RMM:  11    -0.642202442949E+03   -0.52077E-03   -0.71544E-03 14131   0.145E-01    0.219E-01
RMM:  12    -0.642202590424E+03   -0.14747E-03   -0.42856E-03 13982   0.117E-01    0.113E-01
RMM:  13    -0.642202789576E+03   -0.19915E-03   -0.24186E-03 13622   0.838E-02    0.925E-02
RMM:  14    -0.642202991789E+03   -0.20221E-03   -0.15912E-03 13450   0.712E-02    0.121E-01
RMM:  15    -0.642202976902E+03    0.14887E-04   -0.93930E-04 12963   0.550E-02    0.327E-02
RMM:  16    -0.642203022536E+03   -0.45634E-04   -0.57867E-04 12430   0.431E-02    0.233E-02
RMM:  17    -0.642203048115E+03   -0.25579E-04   -0.32452E-04 11654   0.333E-02    0.268E-02
RMM:  18    -0.642203061477E+03   -0.13362E-04   -0.22248E-04 11469   0.275E-02    0.130E-02
RMM:  19    -0.642203070702E+03   -0.92250E-05   -0.12699E-04 10263   0.219E-02    0.689E-03
RMM:  20    -0.642203076750E+03   -0.60485E-05   -0.79642E-05  9887   0.182E-02
   6 F= -.64220308E+03 E0= -.64211856E+03  d E =-.176047E+01
       N       E                     dE             d eps       ncg     rms          rms(c)
DAV:   1    -0.641566209122E+03    0.63686E+00   -0.10106E+02  9072   0.338E+01    0.201E+00
RMM:   2    -0.642485534267E+03   -0.91933E+00   -0.97539E+00 13453   0.925E+00    0.222E+00
RMM:   3    -0.642491951385E+03   -0.64171E-02   -0.91668E-01 13211   0.290E+00    0.225E+00
RMM:   4    -0.642451968081E+03    0.39983E-01   -0.19984E-01 14035   0.138E+00    0.992E-01
RMM:   5    -0.642447450941E+03    0.45171E-02   -0.95224E-02 13499   0.588E-01    0.807E-01
RMM:   6    -0.642450557104E+03   -0.31062E-02   -0.54225E-02 13444   0.521E-01    0.103E+00
RMM:   7    -0.642441708444E+03    0.88487E-02   -0.27421E-02 13634   0.344E-01    0.352E-01
RMM:   8    -0.642442360559E+03   -0.65212E-03   -0.11738E-02 14119   0.242E-01    0.396E-01
RMM:   9    -0.642441895642E+03    0.46492E-03   -0.70972E-03 13517   0.155E-01    0.189E-01
RMM:  10    -0.642441910555E+03   -0.14913E-04   -0.38130E-03 13620   0.119E-01    0.125E-01
RMM:  11    -0.642442014991E+03   -0.10444E-03   -0.19225E-03 13111   0.753E-02    0.984E-02
RMM:  12    -0.642442091112E+03   -0.76121E-04   -0.11650E-03 12863   0.620E-02    0.648E-02
RMM:  13    -0.642442150624E+03   -0.59512E-04   -0.67821E-04 12348   0.475E-02    0.600E-02
RMM:  14    -0.642442187869E+03   -0.37245E-04   -0.44991E-04 12278   0.407E-02    0.501E-02
RMM:  15    -0.642442195854E+03   -0.79852E-05   -0.25160E-04 11327   0.318E-02    0.145E-02
RMM:  16    -0.642442208693E+03   -0.12839E-04   -0.16303E-04 11177   0.256E-02    0.939E-03
RMM:  17    -0.642442214815E+03   -0.61222E-05   -0.83795E-05  9543   0.205E-02
   7 F= -.64244221E+03 E0= -.64235945E+03  d E =-.199961E+01
       N       E                     dE             d eps       ncg     rms          rms(c)
DAV:   1    -0.642307715030E+03    0.13449E+00   -0.20190E+02  9288   0.592E+01    0.159E+01
RMM:   2    -0.661209249323E+03   -0.18902E+02   -0.60799E+01 10998   0.235E+01    0.296E+01
RMM:   3    -0.643468107986E+03    0.17741E+02   -0.11806E+01 11712   0.109E+01    0.659E+00
RMM:   4    -0.643134912421E+03    0.33320E+00   -0.30519E+00 13275   0.421E+00    0.476E+00
RMM:   5    -0.642988841769E+03    0.14607E+00   -0.10783E+00 13825   0.227E+00    0.478E+00
RMM:   6    -0.642849943452E+03    0.13890E+00   -0.38285E-01 13541   0.146E+00    0.289E+00
RMM:   7    -0.642791915292E+03    0.58028E-01   -0.27125E-01 13026   0.132E+00    0.197E+00
RMM:   8    -0.642779460473E+03    0.12455E-01   -0.12769E-01 13426   0.913E-01    0.177E+00
RMM:   9    -0.642756427180E+03    0.23033E-01   -0.52230E-02 13738   0.507E-01    0.558E-01
RMM:  10    -0.642754252980E+03    0.21742E-02   -0.19032E-02 13835   0.308E-01    0.355E-01
RMM:  11    -0.642755140487E+03   -0.88751E-03   -0.10467E-02 14345   0.197E-01    0.360E-01
RMM:  12    -0.642755339281E+03   -0.19879E-03   -0.59352E-03 14168   0.151E-01    0.232E-01
RMM:  13    -0.642756205408E+03   -0.86613E-03   -0.47291E-03 14269   0.116E-01    0.171E-01
RMM:  14    -0.642756881193E+03   -0.67578E-03   -0.43460E-03 13930   0.120E-01    0.167E-01
RMM:  15    -0.642756919846E+03   -0.38653E-04   -0.28278E-03 13765   0.912E-02    0.118E-01
RMM:  16    -0.642756895463E+03    0.24383E-04   -0.15150E-03 13149   0.740E-02    0.488E-02
RMM:  17    -0.642756934549E+03   -0.39086E-04   -0.82800E-04 12767   0.471E-02    0.493E-02
RMM:  18    -0.642756954356E+03   -0.19807E-04   -0.46715E-04 12221   0.403E-02    0.361E-02
RMM:  19    -0.642756966853E+03   -0.12497E-04   -0.29149E-04 12176   0.319E-02    0.153E-02
RMM:  20    -0.642756977330E+03   -0.10476E-04   -0.16794E-04 11195   0.273E-02    0.980E-03
RMM:  21    -0.642756984259E+03   -0.69298E-05   -0.11238E-04 10636   0.203E-02    0.816E-03
RMM:  22    -0.642756988205E+03   -0.39453E-05   -0.61560E-05  9218   0.190E-02
   8 F= -.64275699E+03 E0= -.64267431E+03  d E =-.314773E+00
       N       E                     dE             d eps       ncg     rms          rms(c)
DAV:   1    -0.642760548743E+03   -0.35645E-02   -0.70558E+00  9672   0.113E+01    0.270E+00
RMM:   2    -0.643504030282E+03   -0.74348E+00   -0.25283E+00 10787   0.473E+00    0.861E+00
RMM:   3    -0.642800975370E+03    0.70305E+00   -0.46379E-01 10904   0.229E+00    0.118E+00
RMM:   4    -0.642793112163E+03    0.78632E-02   -0.96358E-02 13210   0.789E-01    0.122E+00
RMM:   5    -0.642781919103E+03    0.11193E-01   -0.29409E-02 12957   0.432E-01    0.787E-01
RMM:   6    -0.642775878043E+03    0.60411E-02   -0.15090E-02 12903   0.310E-01    0.389E-01
RMM:   7    -0.642776957684E+03   -0.10796E-02   -0.10186E-02 12913   0.251E-01    0.556E-01
RMM:   8    -0.642774510187E+03    0.24475E-02   -0.40211E-03 12891   0.166E-01    0.176E-01
RMM:   9    -0.642774280849E+03    0.22934E-03   -0.13176E-03 13202   0.829E-02    0.977E-02
RMM:  10    -0.642774300206E+03   -0.19357E-04   -0.58480E-04 12746   0.522E-02    0.932E-02
RMM:  11    -0.642774291033E+03    0.91724E-05   -0.31351E-04 12281   0.354E-02    0.541E-02
RMM:  12    -0.642774321769E+03   -0.30736E-04   -0.17210E-04 11258   0.252E-02    0.453E-02
RMM:  13    -0.642774363146E+03   -0.41377E-04   -0.14107E-04 11266   0.248E-02    0.501E-02
RMM:  14    -0.642774386817E+03   -0.23671E-04   -0.12894E-04 11048   0.234E-02    0.200E-02
RMM:  15    -0.642774405198E+03   -0.18381E-04   -0.92328E-05 10061   0.208E-02    0.107E-02
RMM:  16    -0.642774407719E+03   -0.25206E-05   -0.41259E-05  8131   0.180E-02
   9 F= -.64277441E+03 E0= -.64269128E+03  d E =-.332193E+00
       N       E                     dE             d eps       ncg     rms          rms(c)
DAV:   1    -0.640672045110E+03    0.21024E+01   -0.15229E+02  9072   0.515E+01    0.397E+00
RMM:   2    -0.643776576585E+03   -0.31045E+01   -0.28476E+01 13458   0.151E+01    0.800E+00
RMM:   3    -0.643143687478E+03    0.63289E+00   -0.26834E+00 13490   0.485E+00    0.270E+00
RMM:   4    -0.643123975994E+03    0.19711E-01   -0.53508E-01 14138   0.192E+00    0.225E+00
RMM:   5    -0.643091966388E+03    0.32010E-01   -0.15426E-01 13816   0.891E-01    0.138E+00
RMM:   6    -0.643079932959E+03    0.12033E-01   -0.80813E-02 13529   0.678E-01    0.882E-01
RMM:   7    -0.643078681775E+03    0.12512E-02   -0.56265E-02 13604   0.546E-01    0.978E-01
RMM:   8    -0.643072583795E+03    0.60980E-02   -0.27451E-02 14266   0.368E-01    0.427E-01
RMM:   9    -0.643072502735E+03    0.81060E-04   -0.12352E-02 13970   0.229E-01    0.293E-01
RMM:  10    -0.643072633959E+03   -0.13122E-03   -0.66978E-03 14106   0.151E-01    0.226E-01
RMM:  11    -0.643072577968E+03    0.55990E-04   -0.36037E-03 13790   0.114E-01    0.989E-02
RMM:  12    -0.643072831280E+03   -0.25331E-03   -0.20785E-03 13888   0.757E-02    0.103E-01
RMM:  13    -0.643072954080E+03   -0.12280E-03   -0.12980E-03 13364   0.655E-02    0.747E-02
RMM:  14    -0.643073032158E+03   -0.78078E-04   -0.83502E-04 13135   0.492E-02    0.394E-02
RMM:  15    -0.643073076689E+03   -0.44531E-04   -0.51400E-04 12526   0.428E-02    0.153E-02
RMM:  16    -0.643073098554E+03   -0.21865E-04   -0.29822E-04 11819   0.307E-02    0.149E-02
RMM:  17    -0.643073114261E+03   -0.15707E-04   -0.20326E-04 11539   0.279E-02    0.130E-02
RMM:  18    -0.643073121418E+03   -0.71577E-05   -0.10960E-04 10386   0.204E-02    0.718E-03
RMM:  19    -0.643073126837E+03   -0.54182E-05   -0.68194E-05  9558   0.184E-02
  10 F= -.64307313E+03 E0= -.64299864E+03  d E =-.298719E+00
       N       E                     dE             d eps       ncg     rms          rms(c)
DAV:   1    -0.643057098783E+03    0.16023E-01   -0.11317E+00  9744   0.448E+00    0.339E-01
RMM:   2    -0.643079185040E+03   -0.22086E-01   -0.20782E-01 13603   0.129E+00    0.613E-01
RMM:   3    -0.643075825498E+03    0.33595E-02   -0.20271E-02 13646   0.404E-01    0.247E-01
RMM:   4    -0.643075572742E+03    0.25276E-03   -0.35589E-03 14033   0.160E-01    0.186E-01
RMM:   5    -0.643075377491E+03    0.19525E-03   -0.12743E-03 13066   0.778E-02    0.118E-01
RMM:   6    -0.643075299351E+03    0.78140E-04   -0.66328E-04 12978   0.618E-02    0.741E-02
RMM:   7    -0.643075266418E+03    0.32933E-04   -0.43920E-04 13209   0.475E-02    0.601E-02
RMM:   8    -0.643075263746E+03    0.26720E-05   -0.21809E-04 12340   0.329E-02    0.457E-02
RMM:   9    -0.643075260438E+03    0.33090E-05   -0.11403E-04 11040   0.239E-02    0.211E-02
RMM:  10    -0.643075264368E+03   -0.39304E-05   -0.61532E-05  9868   0.196E-02
  11 F= -.64307526E+03 E0= -.64300175E+03  d E =-.300857E+00
       N       E                     dE             d eps       ncg     rms          rms(c)
DAV:   1    -0.642616886936E+03    0.45837E+00   -0.50427E+01  9072   0.276E+01    0.207E+00
RMM:   2    -0.643263610786E+03   -0.64672E+00   -0.73278E+00 13467   0.771E+00    0.159E+00
RMM:   3    -0.643282282795E+03   -0.18672E-01   -0.69285E-01 13290   0.260E+00    0.226E+00
RMM:   4    -0.643237213395E+03    0.45069E-01   -0.14753E-01 14043   0.120E+00    0.759E-01
RMM:   5    -0.643242035849E+03   -0.48225E-02   -0.75824E-02 13605   0.526E-01    0.102E+00
RMM:   6    -0.643236272535E+03    0.57633E-02   -0.36805E-02 13659   0.477E-01    0.595E-01
RMM:   7    -0.643233982891E+03    0.22896E-02   -0.20052E-02 13695   0.271E-01    0.328E-01
RMM:   8    -0.643233807349E+03    0.17554E-03   -0.88628E-03 13941   0.205E-01    0.210E-01
RMM:   9    -0.643233886478E+03   -0.79128E-04   -0.50404E-03 13497   0.117E-01    0.119E-01
RMM:  10    -0.643234047704E+03   -0.16123E-03   -0.28901E-03 13069   0.960E-02    0.108E-01
RMM:  11    -0.643234087101E+03   -0.39397E-04   -0.15893E-03 12836   0.638E-02    0.452E-02
RMM:  12    -0.643234154053E+03   -0.66952E-04   -0.94760E-04 12324   0.513E-02    0.300E-02
RMM:  13    -0.643234199352E+03   -0.45299E-04   -0.54104E-04 11929   0.393E-02    0.322E-02
RMM:  14    -0.643234224375E+03   -0.25023E-04   -0.37079E-04 11726   0.333E-02    0.166E-02
RMM:  15    -0.643234239515E+03   -0.15140E-04   -0.21713E-04 10905   0.258E-02    0.751E-03
RMM:  16    -0.643234251068E+03   -0.11552E-04   -0.14153E-04 10609   0.211E-02    0.709E-03
RMM:  17    -0.643234256863E+03   -0.57952E-05   -0.78694E-05  9642   0.175E-02
  12 F= -.64323426E+03 E0= -.64316432E+03  d E =-.158992E+00
       N       E                     dE             d eps       ncg     rms          rms(c)
DAV:   1    -0.643100015592E+03    0.13424E+00   -0.12720E+01  9072   0.139E+01    0.104E+00
RMM:   2    -0.643264707579E+03   -0.16469E+00   -0.18685E+00 13498   0.387E+00    0.773E-01
RMM:   3    -0.643267553192E+03   -0.28456E-02   -0.17250E-01 13311   0.128E+00    0.112E+00
RMM:   4    -0.643256316970E+03    0.11236E-01   -0.37295E-02 14088   0.610E-01    0.374E-01
RMM:   5    -0.643257654065E+03   -0.13371E-02   -0.19604E-02 13585   0.263E-01    0.507E-01
RMM:   6    -0.643256174206E+03    0.14799E-02   -0.94755E-03 13626   0.242E-01    0.291E-01
RMM:   7    -0.643255662084E+03    0.51212E-03   -0.51286E-03 13707   0.136E-01    0.166E-01
RMM:   8    -0.643255614730E+03    0.47354E-04   -0.23074E-03 13295   0.103E-01    0.978E-02
RMM:   9    -0.643255639652E+03   -0.24922E-04   -0.12772E-03 12554   0.599E-02    0.549E-02
RMM:  10    -0.643255692284E+03   -0.52633E-04   -0.76128E-04 12365   0.498E-02    0.553E-02
RMM:  11    -0.643255700105E+03   -0.78202E-05   -0.40681E-04 11585   0.345E-02    0.203E-02
RMM:  12    -0.643255719710E+03   -0.19605E-04   -0.26097E-04 11348   0.286E-02    0.145E-02
RMM:  13    -0.643255731865E+03   -0.12155E-04   -0.14608E-04 10464   0.229E-02    0.176E-02
RMM:  14    -0.643255737769E+03   -0.59043E-05   -0.10064E-04 10224   0.193E-02    0.530E-03
RMM:  15    -0.643255740928E+03   -0.31587E-05   -0.48836E-05  8722   0.162E-02
  13 F= -.64325574E+03 E0= -.64318742E+03  d E =-.180477E+00
       N       E                     dE             d eps       ncg     rms          rms(c)
DAV:   1    -0.642934735920E+03    0.32100E+00   -0.31250E+01  9408   0.234E+01    0.274E+00
RMM:   2    -0.643774127925E+03   -0.83939E+00   -0.61105E+00 13577   0.702E+00    0.594E+00
RMM:   3    -0.643359632567E+03    0.41450E+00   -0.68286E-01 13274   0.267E+00    0.126E+00
RMM:   4    -0.643358810373E+03    0.82219E-03   -0.16386E-01 14248   0.971E-01    0.138E+00
RMM:   5    -0.643345615115E+03    0.13195E-01   -0.53048E-02 13548   0.557E-01    0.842E-01
RMM:   6    -0.643340561523E+03    0.50536E-02   -0.29663E-02 13373   0.409E-01    0.470E-01
RMM:   7    -0.643341360917E+03   -0.79939E-03   -0.18579E-02 13564   0.331E-01    0.636E-01
RMM:   8    -0.643338562957E+03    0.27980E-02   -0.90555E-03 14115   0.207E-01    0.197E-01
RMM:   9    -0.643338514395E+03    0.48562E-04   -0.42081E-03 13660   0.134E-01    0.116E-01
RMM:  10    -0.643338617173E+03   -0.10278E-03   -0.22291E-03 13364   0.824E-02    0.984E-02
RMM:  11    -0.643338652431E+03   -0.35258E-04   -0.12369E-03 12843   0.594E-02    0.549E-02
RMM:  12    -0.643338707721E+03   -0.55290E-04   -0.69227E-04 12029   0.449E-02    0.429E-02
RMM:  13    -0.643338755341E+03   -0.47620E-04   -0.47734E-04 11966   0.391E-02    0.444E-02
RMM:  14    -0.643338769544E+03   -0.14203E-04   -0.30628E-04 11579   0.329E-02    0.269E-02
RMM:  15    -0.643338775949E+03   -0.64050E-05   -0.20260E-04 11389   0.277E-02    0.917E-03
RMM:  16    -0.643338783143E+03   -0.71937E-05   -0.11196E-04 10473   0.208E-02    0.716E-03
RMM:  17    -0.643338788108E+03   -0.49652E-05   -0.67157E-05  9724   0.178E-02
  14 F= -.64333879E+03 E0= -.64327265E+03  d E =-.830472E-01
       N       E                     dE             d eps       ncg     rms          rms(c)
DAV:   1    -0.643309360422E+03    0.29423E-01   -0.26630E+00  9600   0.684E+00    0.791E-01
RMM:   2    -0.643380848457E+03   -0.71488E-01   -0.52412E-01 13613   0.205E+00    0.179E+00
RMM:   3    -0.643345506711E+03    0.35342E-01   -0.57413E-02 13310   0.772E-01    0.397E-01
RMM:   4    -0.643345492286E+03    0.14424E-04   -0.14610E-02 14194   0.289E-01    0.432E-01
RMM:   5    -0.643344114764E+03    0.13775E-02   -0.48591E-03 13507   0.165E-01    0.239E-01
RMM:   6    -0.643343665287E+03    0.44948E-03   -0.26524E-03 13300   0.123E-01    0.125E-01
RMM:   7    -0.643343618237E+03    0.47050E-04   -0.15365E-03 13460   0.961E-02    0.132E-01
RMM:   8    -0.643343546077E+03    0.72160E-04   -0.75094E-04 13285   0.578E-02    0.730E-02
RMM:   9    -0.643343524897E+03    0.21181E-04   -0.37730E-04 12151   0.400E-02    0.297E-02
RMM:  10    -0.643343532204E+03   -0.73076E-05   -0.18588E-04 11210   0.276E-02    0.276E-02
RMM:  11    -0.643343534893E+03   -0.26885E-05   -0.10595E-04 10414   0.219E-02    0.167E-02
RMM:  12    -0.643343539037E+03   -0.41448E-05   -0.77922E-05 10008   0.181E-02
  15 F= -.64334354E+03 E0= -.64327788E+03  d E =-.877981E-01
       N       E                     dE             d eps       ncg     rms          rms(c)
DAV:   1    -0.643073468674E+03    0.27007E+00   -0.33329E+01  9216   0.251E+01    0.414E+00
RMM:   2    -0.644674701973E+03   -0.16012E+01   -0.88872E+00 11256   0.894E+00    0.109E+01
RMM:   3    -0.643432630203E+03    0.12421E+01   -0.12541E+00 11327   0.399E+00    0.201E+00
RMM:   4    -0.643415200261E+03    0.17430E-01   -0.29145E-01 13507   0.133E+00    0.188E+00
RMM:   5    -0.643390332072E+03    0.24868E-01   -0.84478E-02 13245   0.782E-01    0.137E+00
RMM:   6    -0.643372460688E+03    0.17871E-01   -0.47029E-02 13175   0.562E-01    0.583E-01
RMM:   7    -0.643375606292E+03   -0.31456E-02   -0.28286E-02 13403   0.443E-01    0.867E-01
RMM:   8    -0.643369896293E+03    0.57100E-02   -0.12119E-02 13889   0.263E-01    0.260E-01
RMM:   9    -0.643369614593E+03    0.28170E-03   -0.47297E-03 13723   0.139E-01    0.149E-01
RMM:  10    -0.643369773133E+03   -0.15854E-03   -0.22478E-03 13415   0.941E-02    0.140E-01
RMM:  11    -0.643369815464E+03   -0.42331E-04   -0.12445E-03 13228   0.624E-02    0.850E-02
RMM:  12    -0.643369953529E+03   -0.13806E-03   -0.74800E-04 12424   0.465E-02    0.714E-02
RMM:  13    -0.643370108743E+03   -0.15521E-03   -0.63480E-04 12428   0.458E-02    0.679E-02
RMM:  14    -0.643370149997E+03   -0.41253E-04   -0.44871E-04 12122   0.399E-02    0.302E-02
RMM:  15    -0.643370167958E+03   -0.17962E-04   -0.24856E-04 11265   0.305E-02    0.148E-02
RMM:  16    -0.643370177301E+03   -0.93423E-05   -0.14087E-04 10765   0.244E-02    0.141E-02
RMM:  17    -0.643370183231E+03   -0.59303E-05   -0.83469E-05 10038   0.193E-02
  16 F= -.64337018E+03 E0= -.64330647E+03  d E =-.266442E-01
       N       E                     dE             d eps       ncg     rms          rms(c)
DAV:   1    -0.643348170219E+03    0.22007E-01   -0.32540E+00  9360   0.781E+00    0.133E+00
RMM:   2    -0.643508740451E+03   -0.16057E+00   -0.83721E-01 11400   0.274E+00    0.326E+00
RMM:   3    -0.643382633963E+03    0.12611E+00   -0.12266E-01 11395   0.122E+00    0.544E-01
RMM:   4    -0.643382100564E+03    0.53340E-03   -0.28042E-02 13428   0.417E-01    0.623E-01
RMM:   5    -0.643379265231E+03    0.28353E-02   -0.81845E-03 13252   0.236E-01    0.394E-01
RMM:   6    -0.643377802298E+03    0.14629E-02   -0.44882E-03 13194   0.169E-01    0.185E-01
RMM:   7    -0.643378077007E+03   -0.27471E-03   -0.26822E-03 13330   0.136E-01    0.280E-01
RMM:   8    -0.643377473316E+03    0.60369E-03   -0.11825E-03 13356   0.814E-02    0.790E-02
RMM:   9    -0.643377428613E+03    0.44703E-04   -0.44893E-04 12632   0.461E-02    0.373E-02
RMM:  10    -0.643377434164E+03   -0.55511E-05   -0.20416E-04 11618   0.290E-02    0.348E-02
RMM:  11    -0.643377436196E+03   -0.20318E-05   -0.11189E-04 10733   0.212E-02    0.259E-02
RMM:  12    -0.643377439256E+03   -0.30605E-05   -0.69407E-05  9719   0.184E-02
  17 F= -.64337744E+03 E0= -.64331320E+03  d E =-.339002E-01
       N       E                     dE             d eps       ncg     rms          rms(c)
DAV:   1    -0.643243595828E+03    0.13384E+00   -0.10950E+01  9072   0.139E+01    0.123E+00
RMM:   2    -0.643461183628E+03   -0.21759E+00   -0.18883E+00 13436   0.397E+00    0.247E+00
RMM:   3    -0.643401635716E+03    0.59548E-01   -0.19941E-01 13431   0.137E+00    0.703E-01
RMM:   4    -0.643401340707E+03    0.29501E-03   -0.39134E-02 14100   0.514E-01    0.742E-01
RMM:   5    -0.643397389297E+03    0.39514E-02   -0.14069E-02 13780   0.261E-01    0.365E-01
RMM:   6    -0.643396667351E+03    0.72195E-03   -0.78332E-03 13449   0.213E-01    0.261E-01
RMM:   7    -0.643396733113E+03   -0.65763E-04   -0.48016E-03 13598   0.157E-01    0.320E-01
RMM:   8    -0.643395970717E+03    0.76240E-03   -0.23646E-03 13850   0.970E-02    0.779E-02
RMM:   9    -0.643395980944E+03   -0.10227E-04   -0.10277E-03 13052   0.653E-02    0.419E-02
RMM:  10    -0.643396016460E+03   -0.35515E-04   -0.54393E-04 12286   0.402E-02    0.458E-02
RMM:  11    -0.643396026160E+03   -0.97001E-05   -0.29760E-04 11358   0.329E-02    0.281E-02
RMM:  12    -0.643396037506E+03   -0.11347E-04   -0.18661E-04 10726   0.256E-02    0.159E-02
RMM:  13    -0.643396045607E+03   -0.81001E-05   -0.13315E-04 10413   0.220E-02    0.118E-02
RMM:  14    -0.643396048613E+03   -0.30067E-05   -0.70662E-05  9403   0.192E-02
  18 F= -.64339605E+03 E0= -.64333149E+03  d E =-.186094E-01
       N       E                     dE             d eps       ncg     rms          rms(c)
DAV:   1    -0.643396013839E+03    0.31767E-04   -0.31155E-03 10704   0.234E-01    0.218E-02
RMM:   2    -0.643396086262E+03   -0.72423E-04   -0.59945E-04 13029   0.691E-02    0.494E-02
RMM:   3    -0.643396065233E+03    0.21029E-04   -0.10003E-04 10506   0.272E-02    0.120E-02
RMM:   4    -0.643396066178E+03   -0.94535E-06   -0.35230E-05  8222   0.167E-02
  19 F= -.64339607E+03 E0= -.64333149E+03  d E =-.186269E-01
       N       E                     dE             d eps       ncg     rms          rms(c)
DAV:   1    -0.643379412973E+03    0.16652E-01   -0.20811E+00  9120   0.556E+00    0.485E-01
RMM:   2    -0.643405037430E+03   -0.25624E-01   -0.29321E-01 13415   0.154E+00    0.500E-01
RMM:   3    -0.643404416606E+03    0.62082E-03   -0.29583E-02 13409   0.497E-01    0.449E-01
RMM:   4    -0.643402653526E+03    0.17631E-02   -0.62597E-03 13811   0.243E-01    0.253E-01
RMM:   5    -0.643402477677E+03    0.17585E-03   -0.31570E-03 13342   0.111E-01    0.213E-01
RMM:   6    -0.643402215688E+03    0.26199E-03   -0.16803E-03 13254   0.979E-02    0.114E-01
RMM:   7    -0.643402124639E+03    0.91049E-04   -0.84978E-04 12753   0.560E-02    0.805E-02
RMM:   8    -0.643402084325E+03    0.40315E-04   -0.38505E-04 11724   0.401E-02    0.238E-02
RMM:   9    -0.643402092355E+03   -0.80303E-05   -0.17786E-04 10594   0.262E-02    0.167E-02
RMM:  10    -0.643402100531E+03   -0.81756E-05   -0.11830E-04 10421   0.211E-02    0.165E-02
RMM:  11    -0.643402102567E+03   -0.20367E-05   -0.57730E-05  9126   0.168E-02
  20 F= -.64340210E+03 E0= -.64333754E+03  d E =-.603639E-02
       N       E                     dE             d eps       ncg     rms          rms(c)
DAV:   1    -0.643401216138E+03    0.88439E-03   -0.10341E-01  9648   0.124E+00    0.109E-01
RMM:   2    -0.643402527350E+03   -0.13112E-02   -0.14862E-02 13442   0.344E-01    0.118E-01
RMM:   3    -0.643402479793E+03    0.47557E-04   -0.15753E-03 13124   0.113E-01    0.988E-02
RMM:   4    -0.643402400320E+03    0.79473E-04   -0.36523E-04 12811   0.565E-02    0.583E-02
RMM:   5    -0.643402392071E+03    0.82485E-05   -0.20027E-04 11141   0.293E-02    0.472E-02
RMM:   6    -0.643402382052E+03    0.10019E-04   -0.11433E-04 11049   0.246E-02    0.257E-02
RMM:   7    -0.643402378279E+03    0.37732E-05   -0.57517E-05  9498   0.162E-02
  21 F= -.64340238E+03 E0= -.64333781E+03  d E =-.631210E-02
       N       E                     dE             d eps       ncg     rms          rms(c)
DAV:   1    -0.643398504715E+03    0.38773E-02   -0.62114E-01  9120   0.307E+00    0.429E-01
RMM:   2    -0.643415853245E+03   -0.17349E-01   -0.11485E-01 12250   0.979E-01    0.993E-01
RMM:   3    -0.643404743385E+03    0.11110E-01   -0.14864E-02 12041   0.404E-01    0.209E-01
RMM:   4    -0.643404645608E+03    0.97777E-04   -0.36349E-03 13655   0.141E-01    0.220E-01
RMM:   5    -0.643404298022E+03    0.34759E-03   -0.11650E-03 12906   0.861E-02    0.149E-01
RMM:   6    -0.643404096527E+03    0.20149E-03   -0.65461E-04 13002   0.618E-02    0.667E-02
RMM:   7    -0.643404139357E+03   -0.42830E-04   -0.38069E-04 12938   0.506E-02    0.101E-01
RMM:   8    -0.643404064968E+03    0.74388E-04   -0.17760E-04 11851   0.300E-02    0.282E-02
RMM:   9    -0.643404063590E+03    0.13788E-05   -0.78766E-05 10480   0.214E-02
  22 F= -.64340406E+03 E0= -.64333952E+03  d E =-.168531E-02
       N       E                     dE             d eps       ncg     rms          rms(c)
DAV:   1    -0.643403910400E+03    0.15457E-03   -0.21808E-02  9768   0.576E-01    0.816E-02
RMM:   2    -0.643404561403E+03   -0.65100E-03   -0.41235E-03 12507   0.185E-01    0.194E-01
RMM:   3    -0.643404143927E+03    0.41748E-03   -0.55904E-04 11452   0.753E-02    0.392E-02
RMM:   4    -0.643404145052E+03   -0.11256E-05   -0.15137E-04 11551   0.291E-02    0.413E-02
RMM:   5    -0.643404135261E+03    0.97913E-05   -0.59044E-05  9508   0.197E-02
  23 F= -.64340414E+03 E0= -.64333960E+03  d E =-.175698E-02
       N       E                     dE             d eps       ncg     rms          rms(c)
DAV:   1    -0.643402596621E+03    0.15484E-02   -0.39202E-01  9312   0.237E+00    0.415E-01
RMM:   2    -0.643417439517E+03   -0.14843E-01   -0.77734E-02 11094   0.845E-01    0.103E+00
RMM:   3    -0.643405617094E+03    0.11822E-01   -0.11653E-02 11118   0.378E-01    0.189E-01
RMM:   4    -0.643405600298E+03    0.16796E-04   -0.29054E-03 13382   0.127E-01    0.220E-01
RMM:   5    -0.643405228340E+03    0.37196E-03   -0.91054E-04 12546   0.755E-02    0.123E-01
RMM:   6    -0.643405072954E+03    0.15539E-03   -0.47328E-04 12964   0.535E-02    0.614E-02
RMM:   7    -0.643405129855E+03   -0.56901E-04   -0.30757E-04 12538   0.456E-02    0.106E-01
RMM:   8    -0.643405035579E+03    0.94276E-04   -0.14010E-04 11493   0.284E-02    0.199E-02
RMM:   9    -0.643405030893E+03    0.46853E-05   -0.50167E-05  9103   0.189E-02
  24 F= -.64340503E+03 E0= -.64334037E+03  d E =-.895632E-03
       N       E                     dE             d eps       ncg     rms          rms(c)
DAV:   1    -0.643405032501E+03    0.30782E-05   -0.67289E-05 12432   0.260E-02    0.144E-02
RMM:   2    -0.643405052667E+03   -0.20166E-04   -0.49319E-05  6935   0.164E-02    0.482E-02
RMM:   3    -0.643405029607E+03    0.23060E-04   -0.13213E-05  5444   0.138E-02    0.594E-03
RMM:   4    -0.643405029105E+03    0.50276E-06   -0.32969E-06  4720   0.782E-03
  25 F= -.64340503E+03 E0= -.64334036E+03  d E =-.893844E-03
       N       E                     dE             d eps       ncg     rms          rms(c)
DAV:   1    -0.643402149140E+03    0.28805E-02   -0.33552E-01  9120   0.218E+00    0.231E-01
RMM:   2    -0.643408597808E+03   -0.64487E-02   -0.49987E-02 13156   0.635E-01    0.506E-01
RMM:   3    -0.643405765524E+03    0.28323E-02   -0.55965E-03 12983   0.222E-01    0.127E-01
RMM:   4    -0.643405734172E+03    0.31353E-04   -0.12025E-03 13263   0.847E-02    0.129E-01
RMM:   5    -0.643405613348E+03    0.12082E-03   -0.42610E-04 12158   0.464E-02    0.832E-02
RMM:   6    -0.643405557203E+03    0.56145E-04   -0.22332E-04 12184   0.364E-02    0.438E-02
RMM:   7    -0.643405568760E+03   -0.11557E-04   -0.13962E-04 11478   0.301E-02    0.609E-02
RMM:   8    -0.643405541142E+03    0.27618E-04   -0.69589E-05 10422   0.210E-02    0.171E-02
RMM:   9    -0.643405541450E+03   -0.30752E-06   -0.31895E-05  7824   0.156E-02
  26 F= -.64340554E+03 E0= -.64334094E+03  d E =-.512345E-03
       N       E                     dE             d eps       ncg     rms          rms(c)
DAV:   1    -0.643405475751E+03    0.65391E-04   -0.67885E-03  9648   0.311E-01    0.347E-02
RMM:   2    -0.643405628392E+03   -0.15264E-03   -0.10715E-03 12637   0.923E-02    0.839E-02
RMM:   3    -0.643405554092E+03    0.74300E-04   -0.13464E-04 10767   0.356E-02    0.185E-02
RMM:   4    -0.643405554996E+03   -0.90458E-06   -0.33700E-05  7845   0.155E-02
  27 F= -.64340555E+03 E0= -.64334098E+03  d E =-.525892E-03
       N       E                     dE             d eps       ncg     rms          rms(c)
DAV:   1    -0.643404899349E+03    0.65474E-03   -0.13204E-01  9120   0.126E+00    0.184E-01
RMM:   2    -0.643408386594E+03   -0.34872E-02   -0.20004E-02 11859   0.412E-01    0.462E-01
RMM:   3    -0.643405931125E+03    0.24555E-02   -0.27909E-03 11482   0.172E-01    0.902E-02
RMM:   4    -0.643405898248E+03    0.32877E-04   -0.63110E-04 12714   0.591E-02    0.858E-02
RMM:   5    -0.643405847548E+03    0.50701E-04   -0.19165E-04 11013   0.346E-02    0.593E-02
RMM:   6    -0.643405815212E+03    0.32335E-04   -0.10654E-04 11029   0.254E-02    0.284E-02
RMM:   7    -0.643405826441E+03   -0.11228E-04   -0.71924E-05  9777   0.232E-02    0.448E-02
RMM:   8    -0.643405811881E+03    0.14559E-04   -0.33348E-05  6909   0.172E-02    0.130E-02
RMM:   9    -0.643405811600E+03    0.28111E-06   -0.12076E-05  5507   0.154E-02
  28 F= -.64340581E+03 E0= -.64334120E+03  d E =-.256604E-03
       N       E                     dE             d eps       ncg     rms          rms(c)
DAV:   1    -0.643405783080E+03    0.28802E-04   -0.48633E-03  9744   0.244E-01    0.361E-02
RMM:   2    -0.643405927209E+03   -0.14413E-03   -0.76886E-04 11308   0.801E-02    0.944E-02
RMM:   3    -0.643405824578E+03    0.10263E-03   -0.10910E-04  9013   0.353E-02    0.161E-02
RMM:   4    -0.643405824364E+03    0.21388E-06   -0.21824E-05  5950   0.149E-02
  29 F= -.64340582E+03 E0= -.64334124E+03  d E =-.269368E-03
       N       E                     dE             d eps       ncg     rms          rms(c)
DAV:   1    -0.643405606109E+03    0.21847E-03   -0.76376E-02  9120   0.953E-01    0.146E-01
RMM:   2    -0.643407533407E+03   -0.19273E-02   -0.11573E-02 11269   0.326E-01    0.351E-01
RMM:   3    -0.643406176176E+03    0.13572E-02   -0.16516E-03 11049   0.139E-01    0.669E-02
RMM:   4    -0.643406176926E+03   -0.75076E-06   -0.42032E-04 12585   0.470E-02    0.769E-02
RMM:   5    -0.643406132443E+03    0.44483E-04   -0.12346E-04 10533   0.299E-02    0.456E-02
RMM:   6    -0.643406112855E+03    0.19588E-04   -0.71388E-05  9782   0.215E-02    0.231E-02
RMM:   7    -0.643406116980E+03   -0.41251E-05   -0.41411E-05  6975   0.194E-02
  30 F= -.64340612E+03 E0= -.64334143E+03  d E =-.292616E-03
       N       E                     dE             d eps       ncg     rms          rms(c)
DAV:   1    -0.643406110946E+03    0.19087E-05   -0.50264E-03  9696   0.247E-01    0.388E-02
RMM:   2    -0.643406254978E+03   -0.14403E-03   -0.79364E-04 10856   0.842E-02    0.100E-01
RMM:   3    -0.643406148662E+03    0.10632E-03   -0.11975E-04  8949   0.370E-02    0.202E-02
RMM:   4    -0.643406146926E+03    0.17356E-05   -0.28552E-05  6178   0.150E-02
  31 F= -.64340615E+03 E0= -.64334141E+03  d E =-.322562E-03
       N       E                     dE             d eps       ncg     rms          rms(c)
DAV:   1    -0.643406066734E+03    0.81928E-04   -0.20253E-02  9216   0.489E-01    0.789E-02
RMM:   2    -0.643406571775E+03   -0.50504E-03   -0.30274E-03 11228   0.165E-01    0.186E-01
RMM:   3    -0.643406208489E+03    0.36329E-03   -0.45407E-04 10567   0.712E-02    0.438E-02
RMM:   4    -0.643406202668E+03    0.58214E-05   -0.12353E-04 10761   0.262E-02    0.423E-02
RMM:   5    -0.643406188331E+03    0.14337E-04   -0.40889E-05  7059   0.196E-02    0.262E-02
RMM:   6    -0.643406180005E+03    0.83257E-05   -0.21250E-05  5692   0.165E-02
  32 F= -.64340618E+03 E0= -.64334140E+03  d E =-.355641E-03
       N       E                     dE             d eps       ncg     rms          rms(c)
DAV:   1    -0.643405739899E+03    0.44843E-03   -0.72117E-02  9072   0.899E-01    0.643E-02
RMM:   2    -0.643406556098E+03   -0.81620E-03   -0.75154E-03 12840   0.247E-01    0.130E-01
RMM:   3    -0.643406420520E+03    0.13558E-03   -0.79072E-04 12607   0.759E-02    0.500E-02
RMM:   4    -0.643406409669E+03    0.10850E-04   -0.13715E-04 11156   0.332E-02    0.342E-02
RMM:   5    -0.643406400652E+03    0.90179E-05   -0.54388E-05  8702   0.175E-02
  33 F= -.64340640E+03 E0= -.64334160E+03  d E =-.220646E-03
       N       E                     dE             d eps       ncg     rms          rms(c)
DAV:   1    -0.643405413398E+03    0.99627E-03   -0.11806E-01  9072   0.115E+00    0.805E-02
RMM:   2    -0.643406596069E+03   -0.11827E-02   -0.12060E-02 12933   0.316E-01    0.108E-01
RMM:   3    -0.643406530631E+03    0.65437E-04   -0.12901E-03 12838   0.950E-02    0.636E-02
RMM:   4    -0.643406503489E+03    0.27142E-04   -0.21906E-04 11888   0.432E-02    0.384E-02
RMM:   5    -0.643406499331E+03    0.41587E-05   -0.10053E-04  9907   0.214E-02    0.337E-02
RMM:   6    -0.643406496490E+03    0.28408E-05   -0.56976E-05  9717   0.199E-02
  34 F= -.64340650E+03 E0= -.64334165E+03  d E =-.316484E-03
       N       E                     dE             d eps       ncg     rms          rms(c)
DAV:   1    -0.643405999495E+03    0.49984E-03   -0.75615E-02  9408   0.921E-01    0.107E-01
RMM:   2    -0.643407507963E+03   -0.15085E-02   -0.10668E-02 12523   0.277E-01    0.260E-01
RMM:   3    -0.643406730500E+03    0.77746E-03   -0.12040E-03 11547   0.979E-02    0.648E-02
RMM:   4    -0.643406712270E+03    0.18230E-04   -0.24510E-04 11923   0.395E-02    0.582E-02
RMM:   5    -0.643406688963E+03    0.23307E-04   -0.87839E-05  9598   0.227E-02    0.348E-02
RMM:   6    -0.643406676908E+03    0.12055E-04   -0.37956E-05  7466   0.173E-02    0.199E-02
RMM:   7    -0.643406682703E+03   -0.57951E-05   -0.32732E-05  6541   0.172E-02
  35 F= -.64340668E+03 E0= -.64334179E+03  d E =-.186213E-03
       N       E                     dE             d eps       ncg     rms          rms(c)
DAV:   1    -0.643400718293E+03    0.59586E-02   -0.68083E-01  9408   0.277E+00    0.319E-01
RMM:   2    -0.643414341910E+03   -0.13624E-01   -0.96507E-02 12316   0.828E-01    0.760E-01
RMM:   3    -0.643407145469E+03    0.71964E-02   -0.10414E-02 11586   0.291E-01    0.176E-01
RMM:   4    -0.643407001131E+03    0.14434E-03   -0.20648E-03 13187   0.114E-01    0.154E-01
RMM:   5    -0.643406839599E+03    0.16153E-03   -0.67957E-04 11884   0.577E-02    0.108E-01
RMM:   6    -0.643406734096E+03    0.10550E-03   -0.32885E-04 12451   0.433E-02    0.556E-02
RMM:   7    -0.643406754112E+03   -0.20016E-04   -0.24367E-04 12419   0.370E-02    0.763E-02
RMM:   8    -0.643406711099E+03    0.43013E-04   -0.99959E-05 10464   0.247E-02    0.261E-02
RMM:   9    -0.643406708854E+03    0.22446E-05   -0.38906E-05  7639   0.170E-02
  36 F= -.64340671E+03 E0= -.64334171E+03  d E =-.212365E-03
       N       E                     dE             d eps       ncg     rms          rms(c)
DAV:   1    -0.643405650917E+03    0.10602E-02   -0.13418E-01  9408   0.123E+00    0.142E-01
RMM:   2    -0.643408302114E+03   -0.26512E-02   -0.18967E-02 12300   0.367E-01    0.333E-01
RMM:   3    -0.643406900195E+03    0.14019E-02   -0.20441E-03 11289   0.130E-01    0.768E-02
RMM:   4    -0.643406868724E+03    0.31471E-04   -0.38046E-04 12077   0.502E-02    0.696E-02
RMM:   5    -0.643406835938E+03    0.32786E-04   -0.12568E-04 10092   0.275E-02    0.504E-02
RMM:   6    -0.643406812112E+03    0.23825E-04   -0.57311E-05  8408   0.204E-02    0.267E-02
RMM:   7    -0.643406816800E+03   -0.46879E-05   -0.45938E-05  7147   0.195E-02
  37 F= -.64340682E+03 E0= -.64334188E+03  d E =-.320311E-03
       N       E                     dE             d eps       ncg     rms          rms(c)
DAV:   1    -0.643406531475E+03    0.28064E-03   -0.40896E-02  9120   0.655E-01    0.451E-02
RMM:   2    -0.643406975902E+03   -0.44443E-03   -0.45793E-03 12060   0.180E-01    0.524E-02
RMM:   3    -0.643406946877E+03    0.29025E-04   -0.41830E-04 11411   0.512E-02    0.439E-02
RMM:   4    -0.643406931798E+03    0.15079E-04   -0.50888E-05  7126   0.223E-02    0.212E-02
RMM:   5    -0.643406927768E+03    0.40304E-05   -0.19550E-05  5988   0.157E-02
  38 F= -.64340693E+03 E0= -.64334190E+03  d E =-.110967E-03
       N       E                     dE             d eps       ncg     rms          rms(c)
DAV:   1    -0.643405049260E+03    0.18825E-02   -0.21084E-01  9072   0.149E+00    0.108E-01
RMM:   2    -0.643407428013E+03   -0.23788E-02   -0.23615E-02 12407   0.406E-01    0.159E-01
RMM:   3    -0.643407169923E+03    0.25809E-03   -0.22517E-03 12837   0.118E-01    0.933E-02
RMM:   4    -0.643407127891E+03    0.42032E-04   -0.35978E-04 11936   0.483E-02    0.645E-02
RMM:   5    -0.643407098578E+03    0.29313E-04   -0.13680E-04 10343   0.257E-02    0.422E-02
RMM:   6    -0.643407088878E+03    0.96999E-05   -0.68920E-05  9450   0.202E-02
  39 F= -.64340709E+03 E0= -.64334187E+03  d E =-.272078E-03
       N       E                     dE             d eps       ncg     rms          rms(c)
DAV:   1    -0.643406792176E+03    0.30640E-03   -0.30475E-02  9360   0.564E-01    0.462E-02
RMM:   2    -0.643407179859E+03   -0.38768E-03   -0.34726E-03 12473   0.155E-01    0.930E-02
RMM:   3    -0.643407092616E+03    0.87243E-04   -0.36741E-04 11423   0.491E-02    0.316E-02
RMM:   4    -0.643407090429E+03    0.21871E-05   -0.66617E-05  8779   0.219E-02
  40 F= -.64340709E+03 E0= -.64334183E+03  d E =-.273629E-03
       N       E                     dE             d eps       ncg     rms          rms(c)
DAV:   1    -0.643406980000E+03    0.11262E-03   -0.26344E-02  9504   0.575E-01    0.734E-02
RMM:   2    -0.643407474698E+03   -0.49470E-03   -0.40193E-03 12519   0.177E-01    0.149E-01
RMM:   3    -0.643407237017E+03    0.23768E-03   -0.47337E-04 11715   0.628E-02    0.505E-02
RMM:   4    -0.643407228942E+03    0.80754E-05   -0.11484E-04 11008   0.265E-02    0.461E-02
RMM:   5    -0.643407211644E+03    0.17298E-04   -0.46213E-05  8476   0.192E-02    0.264E-02
RMM:   6    -0.643407204040E+03    0.76033E-05   -0.24810E-05  6617   0.156E-02
  41 F= -.64340720E+03 E0= -.64334187E+03  d E =-.113611E-03
       N       E                     dE             d eps       ncg     rms          rms(c)
DAV:   1    -0.643406926945E+03    0.28470E-03   -0.37570E-02  9168   0.689E-01    0.886E-02
RMM:   2    -0.643407712736E+03   -0.78579E-03   -0.58645E-03 12256   0.212E-01    0.192E-01
RMM:   3    -0.643407283699E+03    0.42904E-03   -0.68900E-04 11627   0.793E-02    0.454E-02
RMM:   4    -0.643407279571E+03    0.41280E-05   -0.15166E-04 11458   0.299E-02    0.479E-02
RMM:   5    -0.643407263228E+03    0.16343E-04   -0.55614E-05  9134   0.203E-02    0.309E-02
RMM:   6    -0.643407254010E+03    0.92178E-05   -0.29639E-05  7205   0.160E-02
  42 F= -.64340725E+03 E0= -.64334182E+03  d E =-.163581E-03
       N       E                     dE             d eps       ncg     rms          rms(c)
DAV:   1    -0.643407083685E+03    0.17954E-03   -0.40044E-02  9264   0.747E-01    0.120E-01
RMM:   2    -0.643408488607E+03   -0.14049E-02   -0.78147E-03 11834   0.250E-01    0.301E-01
RMM:   3    -0.643407445019E+03    0.10436E-02   -0.10544E-03 11383   0.107E-01    0.553E-02
RMM:   4    -0.643407436358E+03    0.86610E-05   -0.25037E-04 11999   0.372E-02    0.590E-02
RMM:   5    -0.643407411953E+03    0.24405E-04   -0.85595E-05 10400   0.251E-02    0.397E-02
RMM:   6    -0.643407396770E+03    0.15182E-04   -0.43500E-05  8328   0.179E-02    0.184E-02
RMM:   7    -0.643407400563E+03   -0.37928E-05   -0.25119E-05  6018   0.168E-02
  43 F= -.64340740E+03 E0= -.64334193E+03  d E =-.146553E-03
       N       E                     dE             d eps       ncg     rms          rms(c)
DAV:   1    -0.643406797387E+03    0.59938E-03   -0.78276E-02  9072   0.105E+00    0.168E-01
RMM:   2    -0.643409631390E+03   -0.28340E-02   -0.15171E-02 11756   0.348E-01    0.434E-01
RMM:   3    -0.643407507944E+03    0.21234E-02   -0.20756E-03 11496   0.150E-01    0.794E-02
RMM:   4    -0.643407494653E+03    0.13291E-04   -0.47427E-04 12466   0.507E-02    0.846E-02
RMM:   5    -0.643407441438E+03    0.53214E-04   -0.15979E-04 11086   0.321E-02    0.509E-02
RMM:   6    -0.643407416422E+03    0.25017E-04   -0.82841E-05 10374   0.227E-02    0.242E-02
RMM:   7    -0.643407426125E+03   -0.97030E-05   -0.50492E-05  8272   0.206E-02
  44 F= -.64340743E+03 E0= -.64334189E+03  d E =-.172114E-03
       N       E                     dE             d eps       ncg     rms          rms(c)
DAV:   1    -0.643407390984E+03    0.25438E-04   -0.59942E-03  9744   0.288E-01    0.482E-02
RMM:   2    -0.643407615887E+03   -0.22490E-03   -0.11924E-03 11033   0.994E-02    0.127E-01
RMM:   3    -0.643407443862E+03    0.17203E-03   -0.16494E-04  9155   0.448E-02    0.243E-02
RMM:   4    -0.643407443728E+03    0.13380E-06   -0.35048E-05  6454   0.185E-02
  45 F= -.64340744E+03 E0= -.64334191E+03  d E =-.189717E-03
       N       E                     dE             d eps       ncg     rms          rms(c)
DAV:   1    -0.643407370172E+03    0.73690E-04   -0.10400E-02  9552   0.380E-01    0.667E-02
RMM:   2    -0.643407735958E+03   -0.36579E-03   -0.20356E-03 11638   0.129E-01    0.161E-01
RMM:   3    -0.643407456550E+03    0.27941E-03   -0.29394E-04 10136   0.560E-02    0.389E-02
RMM:   4    -0.643407450349E+03    0.62012E-05   -0.75633E-05  9811   0.227E-02
  46 F= -.64340745E+03 E0= -.64334193E+03  d E =-.196339E-03
       N       E                     dE             d eps       ncg     rms          rms(c)
DAV:   1    -0.643407039223E+03    0.41733E-03   -0.36386E-02  9120   0.738E-01    0.481E-02
RMM:   2    -0.643407560940E+03   -0.52172E-03   -0.51990E-03 13142   0.199E-01    0.717E-02
RMM:   3    -0.643407523344E+03    0.37596E-04   -0.46094E-04 12209   0.595E-02    0.368E-02
RMM:   4    -0.643407516949E+03    0.63949E-05   -0.60419E-05  8765   0.267E-02
  47 F= -.64340752E+03 E0= -.64334192E+03  d E =-.665998E-04
       N       E                     dE             d eps       ncg     rms          rms(c)
DAV:   1    -0.643407339724E+03    0.18362E-03   -0.15041E-02  9264   0.473E-01    0.296E-02
RMM:   2    -0.643407544086E+03   -0.20436E-03   -0.21586E-03 12963   0.129E-01    0.300E-02
RMM:   3    -0.643407547491E+03   -0.34049E-05   -0.21476E-04 11071   0.394E-02    0.330E-02
RMM:   4    -0.643407539401E+03    0.80893E-05   -0.32731E-05  7163   0.206E-02
  48 F= -.64340754E+03 E0= -.64334191E+03  d E =-.890520E-04
       N       E                     dE             d eps       ncg     rms          rms(c)
DAV:   1    -0.643406760913E+03    0.78658E-03   -0.60034E-02  9120   0.946E-01    0.562E-02
RMM:   2    -0.643407567318E+03   -0.80640E-03   -0.84510E-03 13374   0.255E-01    0.536E-02
RMM:   3    -0.643407580118E+03   -0.12800E-04   -0.78313E-04 12707   0.733E-02    0.547E-02
RMM:   4    -0.643407557525E+03    0.22594E-04   -0.11018E-04 11202   0.350E-02    0.264E-02
RMM:   5    -0.643407557456E+03    0.68423E-07   -0.52393E-05  9049   0.180E-02
  49 F= -.64340756E+03 E0= -.64334180E+03  d E =-.107107E-03
       N       E                     dE             d eps       ncg     rms          rms(c)
DAV:   1    -0.643407369026E+03    0.18850E-03   -0.14354E-02  9408   0.465E-01    0.340E-02
RMM:   2    -0.643407620016E+03   -0.25099E-03   -0.22384E-03 12045   0.128E-01    0.742E-02
RMM:   3    -0.643407564079E+03    0.55937E-04   -0.19483E-04  8777   0.409E-02    0.307E-02
RMM:   4    -0.643407556275E+03    0.78038E-05   -0.23221E-05  5686   0.190E-02
  50 F= -.64340756E+03 E0= -.64334186E+03  d E =-.105926E-03
       N       E                     dE             d eps       ncg     rms          rms(c)
DAV:   1    -0.643407487162E+03    0.76917E-04   -0.51310E-03  9648   0.279E-01    0.172E-02
RMM:   2    -0.643407560912E+03   -0.73749E-04   -0.75596E-04 12463   0.751E-02    0.224E-02
RMM:   3    -0.643407558291E+03    0.26201E-05   -0.62797E-05  7239   0.237E-02
  51 F= -.64340756E+03 E0= -.64334183E+03  d E =-.107942E-03
       N       E                     dE             d eps       ncg     rms          rms(c)
DAV:   1    -0.643407538965E+03    0.21946E-04   -0.13491E-03  9696   0.144E-01    0.109E-02
RMM:   2    -0.643407562620E+03   -0.23655E-04   -0.20230E-04  8901   0.386E-02    0.273E-02
RMM:   3    -0.643407555569E+03    0.70508E-05   -0.17064E-05  5485   0.172E-02
  52 F= -.64340756E+03 E0= -.64334186E+03  d E =-.105220E-03
       N       E                     dE             d eps       ncg     rms          rms(c)
DAV:   1    -0.643407551470E+03    0.11150E-04   -0.37864E-04  9696   0.777E-02    0.708E-03
RMM:   2    -0.643407560187E+03   -0.87167E-05   -0.57309E-05  6574   0.208E-02
  53 F= -.64340756E+03 E0= -.64334186E+03  d E =-.109837E-03
       N       E                     dE             d eps       ncg     rms          rms(c)
DAV:   1    -0.643407554803E+03   -0.33331E-05   -0.11868E-04  9888   0.462E-02    0.601E-03
RMM:   2    -0.643407560802E+03   -0.59988E-05   -0.19162E-05  5722   0.134E-02
  54 F= -.64340756E+03 E0= -.64334188E+03  d E =-.110453E-03
       N       E                     dE             d eps       ncg     rms          rms(c)
DAV:   1    -0.643407555480E+03   -0.67746E-06   -0.37411E-05  7488   0.268E-02    0.415E-03
RMM:   2    -0.643407558032E+03   -0.25518E-05   -0.66988E-06  4697   0.980E-03
  55 F= -.64340756E+03 E0= -.64334186E+03  d E =-.107683E-03
       N       E                     dE             d eps       ncg     rms          rms(c)
DAV:   1    -0.643407555864E+03   -0.38353E-06   -0.11938E-05  5928   0.152E-02    0.392E-03
RMM:   2    -0.643407558242E+03   -0.23778E-05   -0.30682E-06  4383   0.567E-03
  56 F= -.64340756E+03 E0= -.64334187E+03  d E =-.107893E-03
       N       E                     dE             d eps       ncg     rms          rms(c)
DAV:   1    -0.643407555877E+03   -0.12544E-07   -0.86733E-06  5376   0.114E-02    0.297E-03
RMM:   2    -0.643407557188E+03   -0.13118E-05   -0.14647E-06  4066   0.353E-03
  57 F= -.64340756E+03 E0= -.64334186E+03  d E =-.106839E-03
       N       E                     dE             d eps       ncg     rms          rms(c)
DAV:   1    -0.643407320958E+03    0.23492E-03   -0.29433E-02  9192   0.624E-01    0.591E-02
RMM:   2    -0.643407844560E+03   -0.52360E-03   -0.43514E-03 12920   0.182E-01    0.124E-01
RMM:   3    -0.643407660759E+03    0.18380E-03   -0.42884E-04 11902   0.600E-02    0.330E-02
RMM:   4    -0.643407657363E+03    0.33957E-05   -0.74530E-05  9941   0.241E-02
  58 F= -.64340766E+03 E0= -.64334193E+03  d E =-.100175E-03
       N       E                     dE             d eps       ncg     rms          rms(c)
DAV:   1    -0.643406723822E+03    0.93694E-03   -0.87685E-02  9072   0.108E+00    0.108E-01
RMM:   2    -0.643408323989E+03   -0.16002E-02   -0.13082E-02 12936   0.313E-01    0.231E-01
RMM:   3    -0.643407732331E+03    0.59166E-03   -0.13671E-03 12741   0.105E-01    0.707E-02
RMM:   4    -0.643407713650E+03    0.18681E-04   -0.27546E-04 12376   0.418E-02    0.630E-02
RMM:   5    -0.643407687408E+03    0.26243E-04   -0.10756E-04 10429   0.261E-02    0.395E-02
RMM:   6    -0.643407673883E+03    0.13525E-04   -0.54547E-05  9890   0.194E-02    0.225E-02
RMM:   7    -0.643407682039E+03   -0.81559E-05   -0.41464E-05  8536   0.172E-02
  59 F= -.64340768E+03 E0= -.64334180E+03  d E =-.124850E-03
       N       E                     dE             d eps       ncg     rms          rms(c)
DAV:   1    -0.643407623620E+03    0.50263E-04   -0.55606E-03  9312   0.272E-01    0.272E-02
RMM:   2    -0.643407727774E+03   -0.10415E-03   -0.86253E-04 11964   0.804E-02    0.584E-02
RMM:   3    -0.643407685546E+03    0.42229E-04   -0.78052E-05  7709   0.285E-02    0.150E-02
RMM:   4    -0.643407685147E+03    0.39886E-06   -0.12048E-05  5361   0.151E-02
  60 F= -.64340769E+03 E0= -.64334182E+03  d E =-.127958E-03
       N       E                     dE             d eps       ncg     rms          rms(c)
DAV:   1    -0.643407299440E+03    0.38611E-03   -0.39151E-02  9120   0.753E-01    0.852E-02
RMM:   2    -0.643408206956E+03   -0.90752E-03   -0.68990E-03 12506   0.224E-01    0.195E-01
RMM:   3    -0.643407770739E+03    0.43622E-03   -0.70943E-04 11533   0.811E-02    0.473E-02
RMM:   4    -0.643407771741E+03   -0.10019E-05   -0.15027E-04 11432   0.316E-02    0.534E-02
RMM:   5    -0.643407748064E+03    0.23678E-04   -0.48352E-05  8741   0.200E-02    0.241E-02
RMM:   6    -0.643407741949E+03    0.61148E-05   -0.20513E-05  6047   0.154E-02
  61 F= -.64340774E+03 E0= -.64334182E+03  d E =-.568022E-04
       N       E                     dE             d eps       ncg     rms          rms(c)
DAV:   1    -0.643407719147E+03    0.28916E-04   -0.24936E-03  9696   0.191E-01    0.333E-02
RMM:   2    -0.643407884805E+03   -0.16566E-03   -0.59069E-04 10758   0.649E-02    0.124E-01
RMM:   3    -0.643407744586E+03    0.14022E-03   -0.10087E-04  8448   0.335E-02    0.142E-02
RMM:   4    -0.643407743911E+03    0.67510E-06   -0.16812E-05  5613   0.142E-02
  62 F= -.64340774E+03 E0= -.64334179E+03  d E =-.587642E-04
       N       E                     dE             d eps       ncg     rms          rms(c)
DAV:   1    -0.643407752213E+03   -0.76269E-05   -0.68278E-03  9216   0.264E-01    0.333E-02
RMM:   2    -0.643407830937E+03   -0.78724E-04   -0.68350E-04 12928   0.775E-02    0.623E-02
RMM:   3    -0.643407793326E+03    0.37611E-04   -0.87250E-05 10114   0.288E-02    0.217E-02
RMM:   4    -0.643407792173E+03    0.11526E-05   -0.23465E-05  6562   0.154E-02
  63 F= -.64340779E+03 E0= -.64334183E+03  d E =-.482625E-04
