<?xml version="1.0" encoding="ISO-8859-1"?>
<modeling>
 <generator>
  <i name="program" type="string">vasp </i>
  <i name="version" type="string">5.4.4.18Apr17-6-g9f103f2a35  </i>
  <i name="subversion" type="string">(build Oct 18 2021 20:38:43) complex            parallel </i>
  <i name="platform" type="string">LinuxIFC </i>
  <i name="date" type="string">2024 05 30 </i>
  <i name="time" type="string">10:52:39 </i>
 </generator>
 <incar>
  <i type="string" name="SYSTEM">HECN</i>
  <i type="int" name="ISTART">     0</i>
  <i type="string" name="PREC">normal</i>
  <i type="string" name="ALGO">Fast</i>
  <i type="int" name="ICHARG">     2</i>
  <i type="int" name="NELM">    60</i>
  <i type="int" name="IBRION">     2</i>
  <i name="EDIFF">      0.00001000</i>
  <i name="EDIFFG">     -0.01000000</i>
  <i type="int" name="NSW">   100</i>
  <i type="int" name="ISIF">     3</i>
  <i name="ENCUT">    400.00000000</i>
  <i name="POTIM">      0.50000000</i>
  <i type="logical" name="LREAL"> F  </i>
  <i type="int" name="ISMEAR">     0</i>
  <i name="SIGMA">      0.10000000</i>
  <i type="logical" name="LWAVE"> F  </i>
  <i type="logical" name="LCHARG"> F  </i>
  <v type="int" name="KPOINT_BSE">    -1     0     0     0</v>
  <i type="int" name="NELM">    60</i>
 </incar>
 <structure name="primitive_cell" >
  <crystal>
   <varray name="basis" >
    <v>      11.23999977       0.00000000       0.00000000 </v>
    <v>       0.00000000      11.23999977       0.00000000 </v>
    <v>       0.00000000       0.00000000      11.23999977 </v>
   </varray>
   <i name="volume">   1420.03453724 </i>
   <varray name="rec_basis" >
    <v>       0.08896797       0.00000000       0.00000000 </v>
    <v>       0.00000000       0.08896797       0.00000000 </v>
    <v>       0.00000000       0.00000000       0.08896797 </v>
   </varray>
  </crystal>
  <varray name="positions" >
   <v>       0.00000000       0.00000000       0.00000000 </v>
   <v>      -0.24999996       0.00000000       0.00000000 </v>
   <v>       0.00000000       0.00000000      -0.24999996 </v>
   <v>       0.00000000      -0.24999996       0.00000000 </v>
   <v>       0.25000000       0.00000000       0.00000000 </v>
   <v>       0.00000000       0.25000000       0.00000000 </v>
   <v>       0.00000000       0.00000000       0.25000000 </v>
   <v>      -0.24999996      -0.24999996       0.00000000 </v>
   <v>       0.00000000      -0.24999996      -0.24999996 </v>
   <v>      -0.24999996       0.00000000      -0.24999996 </v>
   <v>       0.00000000       0.25000000      -0.24999996 </v>
   <v>      -0.24999996       0.00000000       0.25000000 </v>
   <v>      -0.24999996       0.25000000       0.00000000 </v>
   <v>       0.25000000      -0.24999996       0.00000000 </v>
   <v>       0.25000000       0.00000000      -0.24999996 </v>
   <v>       0.00000000      -0.24999996       0.25000000 </v>
   <v>       0.25000000       0.00000000       0.25000000 </v>
   <v>       0.00000000       0.25000000       0.25000000 </v>
   <v>       0.25000000       0.25000000       0.00000000 </v>
   <v>      -0.24999996      -0.24999996      -0.24999996 </v>
   <v>      -0.24999996       0.25000000      -0.24999996 </v>
   <v>       0.25000000      -0.24999996      -0.24999996 </v>
   <v>      -0.24999996      -0.24999996       0.25000000 </v>
   <v>      -0.24999996       0.25000000       0.25000000 </v>
   <v>       0.25000000      -0.24999996       0.25000000 </v>
   <v>       0.25000000       0.25000000      -0.24999996 </v>
   <v>       0.25000000       0.25000000       0.25000000 </v>
   <v>      -0.50000000       0.00000000       0.00000000 </v>
   <v>       0.00000000      -0.50000000       0.00000000 </v>
   <v>       0.00000000       0.00000000      -0.50000000 </v>
   <v>      -0.50000000      -0.24999996       0.00000000 </v>
   <v>      -0.24999996       0.00000000      -0.50000000 </v>
   <v>      -0.50000000       0.00000000      -0.24999996 </v>
   <v>      -0.24999996      -0.50000000       0.00000000 </v>
   <v>       0.00000000      -0.24999996      -0.50000000 </v>
   <v>       0.00000000      -0.50000000      -0.24999996 </v>
   <v>      -0.50000000       0.00000000       0.25000000 </v>
   <v>       0.00000000      -0.50000000       0.25000000 </v>
   <v>      -0.50000000       0.25000000       0.00000000 </v>
   <v>       0.25000000      -0.50000000       0.00000000 </v>
   <v>       0.25000000       0.00000000      -0.50000000 </v>
   <v>       0.00000000       0.25000000      -0.50000000 </v>
   <v>      -0.24999996      -0.24999996      -0.50000000 </v>
   <v>      -0.50000000      -0.24999996      -0.24999996 </v>
   <v>      -0.24999996      -0.50000000      -0.24999996 </v>
   <v>      -0.50000000       0.25000000      -0.24999996 </v>
   <v>      -0.24999996       0.25000000      -0.50000000 </v>
   <v>       0.25000000      -0.50000000      -0.24999996 </v>
   <v>       0.25000000      -0.24999996      -0.50000000 </v>
   <v>      -0.50000000      -0.24999996       0.25000000 </v>
   <v>      -0.24999996      -0.50000000       0.25000000 </v>
   <v>       0.25000000      -0.50000000       0.25000000 </v>
   <v>      -0.50000000       0.25000000       0.25000000 </v>
   <v>       0.25000000       0.25000000      -0.50000000 </v>
   <v>      -0.50000000      -0.50000000       0.00000000 </v>
   <v>       0.00000000      -0.50000000      -0.50000000 </v>
   <v>      -0.50000000       0.00000000      -0.50000000 </v>
   <v>      -0.24999996      -0.50000000      -0.50000000 </v>
   <v>      -0.50000000      -0.24999996      -0.50000000 </v>
   <v>      -0.50000000      -0.50000000      -0.24999996 </v>
   <v>      -0.50000000       0.25000000      -0.50000000 </v>
   <v>      -0.50000000      -0.50000000       0.25000000 </v>
   <v>       0.25000000      -0.50000000      -0.50000000 </v>
   <v>      -0.50000000      -0.50000000      -0.50000000 </v>
  </varray>
 </structure>
 <varray name="primitive_index" >
  <v type="int" >        1 </v>
  <v type="int" >       25 </v>
  <v type="int" >       29 </v>
  <v type="int" >       38 </v>
  <v type="int" >       22 </v>
  <v type="int" >       23 </v>
  <v type="int" >       34 </v>
  <v type="int" >        9 </v>
  <v type="int" >       12 </v>
  <v type="int" >       58 </v>
  <v type="int" >       10 </v>
  <v type="int" >       16 </v>
  <v type="int" >       17 </v>
  <v type="int" >       18 </v>
  <v type="int" >       56 </v>
  <v type="int" >       59 </v>
  <v type="int" >        2 </v>
  <v type="int" >        8 </v>
  <v type="int" >       14 </v>
  <v type="int" >       49 </v>
  <v type="int" >       30 </v>
  <v type="int" >       45 </v>
  <v type="int" >       39 </v>
  <v type="int" >       24 </v>
  <v type="int" >       36 </v>
  <v type="int" >       42 </v>
  <v type="int" >       21 </v>
  <v type="int" >       53 </v>
  <v type="int" >       54 </v>
  <v type="int" >       61 </v>
  <v type="int" >       28 </v>
  <v type="int" >       31 </v>
  <v type="int" >       33 </v>
  <v type="int" >       40 </v>
  <v type="int" >       47 </v>
  <v type="int" >       48 </v>
  <v type="int" >       26 </v>
  <v type="int" >       27 </v>
  <v type="int" >       35 </v>
  <v type="int" >       37 </v>
  <v type="int" >       43 </v>
  <v type="int" >       44 </v>
  <v type="int" >       64 </v>
  <v type="int" >        7 </v>
  <v type="int" >       63 </v>
  <v type="int" >        5 </v>
  <v type="int" >       11 </v>
  <v type="int" >       13 </v>
  <v type="int" >       20 </v>
  <v type="int" >       55 </v>
  <v type="int" >       60 </v>
  <v type="int" >        3 </v>
  <v type="int" >       15 </v>
  <v type="int" >       19 </v>
  <v type="int" >        4 </v>
  <v type="int" >        6 </v>
  <v type="int" >       57 </v>
  <v type="int" >       50 </v>
  <v type="int" >       51 </v>
  <v type="int" >       52 </v>
  <v type="int" >       32 </v>
  <v type="int" >       41 </v>
  <v type="int" >       46 </v>
  <v type="int" >       62 </v>
 </varray>
 <kpoints>
  <generation param="Gamma">
   <v type="int" name="divisions">       3        3        3 </v>
   <v name="usershift">      0.00000000       0.00000000       0.00000000 </v>
   <v name="genvec1">      0.33333333       0.00000000       0.00000000 </v>
   <v name="genvec2">      0.00000000       0.33333333       0.00000000 </v>
   <v name="genvec3">      0.00000000       0.00000000       0.33333333 </v>
   <v name="shift">      0.00000000       0.00000000       0.00000000 </v>
  </generation>
  <varray name="kpointlist" >
   <v>       0.00000000       0.00000000       0.00000000 </v>
   <v>       0.33333333       0.00000000       0.00000000 </v>
   <v>       0.00000000       0.33333333       0.00000000 </v>
   <v>       0.33333333       0.33333333       0.00000000 </v>
   <v>      -0.33333333       0.33333333       0.00000000 </v>
   <v>       0.00000000       0.00000000       0.33333333 </v>
   <v>       0.33333333       0.00000000       0.33333333 </v>
   <v>      -0.33333333       0.00000000       0.33333333 </v>
   <v>       0.00000000       0.33333333       0.33333333 </v>
   <v>       0.33333333       0.33333333       0.33333333 </v>
   <v>      -0.33333333       0.33333333       0.33333333 </v>
   <v>       0.00000000      -0.33333333       0.33333333 </v>
   <v>       0.33333333      -0.33333333       0.33333333 </v>
   <v>      -0.33333333      -0.33333333       0.33333333 </v>
  </varray>
  <varray name="weights" >
   <v>       0.03703704 </v>
   <v>       0.07407407 </v>
   <v>       0.07407407 </v>
   <v>       0.07407407 </v>
   <v>       0.07407407 </v>
   <v>       0.07407407 </v>
   <v>       0.07407407 </v>
   <v>       0.07407407 </v>
   <v>       0.07407407 </v>
   <v>       0.07407407 </v>
   <v>       0.07407407 </v>
   <v>       0.07407407 </v>
   <v>       0.07407407 </v>
   <v>       0.07407407 </v>
  </varray>
 </kpoints>
 <parameters>
  <separator name="general" >
   <i type="string" name="SYSTEM">HECN</i>
   <i type="logical" name="LCOMPAT"> F  </i>
  </separator>
  <separator name="electronic" >
   <i type="string" name="PREC">normal</i>
   <i name="ENMAX">    400.00000000</i>
   <i name="ENAUG">    644.87300000</i>
   <i name="EDIFF">      0.00001000</i>
   <i type="int" name="IALGO">    68</i>
   <i type="int" name="IWAVPR">    11</i>
   <i type="int" name="NBANDS">   288</i>
   <i name="NELECT">    469.00000000</i>
   <i type="int" name="TURBO">     0</i>
   <i type="int" name="IRESTART">     0</i>
   <i type="int" name="NREBOOT">     0</i>
   <i type="int" name="NMIN">     0</i>
   <i name="EREF">      0.00000000</i>
   <separator name="electronic smearing" >
    <i type="int" name="ISMEAR">     0</i>
    <i name="SIGMA">      0.10000000</i>
    <i name="KSPACING">      0.50000000</i>
    <i type="logical" name="KGAMMA"> T  </i>
   </separator>
   <separator name="electronic projectors" >
    <i type="logical" name="LREAL"> F  </i>
    <v name="ROPT">      0.00000000      0.00000000      0.00000000      0.00000000      0.00000000      0.00000000      0.00000000</v>
    <i type="int" name="LMAXPAW">  -100</i>
    <i type="int" name="LMAXMIX">     2</i>
    <i type="logical" name="NLSPLINE"> F  </i>
   </separator>
   <separator name="electronic startup" >
    <i type="int" name="ISTART">     0</i>
    <i type="int" name="ICHARG">     2</i>
    <i type="int" name="INIWAV">     1</i>
   </separator>
   <separator name="electronic spin" >
    <i type="int" name="ISPIN">     1</i>
    <i type="logical" name="LNONCOLLINEAR"> F  </i>
    <v name="MAGMOM">      1.00000000      1.00000000      1.00000000      1.00000000      1.00000000      1.00000000      1.00000000      1.00000000      1.00000000      1.00000000      1.00000000      1.00000000      1.00000000      1.00000000      1.00000000      1.00000000      1.00000000      1.00000000      1.00000000      1.00000000
      1.00000000      1.00000000      1.00000000      1.00000000      1.00000000      1.00000000      1.00000000      1.00000000      1.00000000      1.00000000      1.00000000      1.00000000      1.00000000      1.00000000      1.00000000      1.00000000      1.00000000      1.00000000      1.00000000      1.00000000
      1.00000000      1.00000000      1.00000000      1.00000000      1.00000000      1.00000000      1.00000000      1.00000000      1.00000000      1.00000000      1.00000000      1.00000000      1.00000000      1.00000000      1.00000000      1.00000000      1.00000000      1.00000000      1.00000000      1.00000000
      1.00000000      1.00000000      1.00000000      1.00000000</v>
    <i name="NUPDOWN">     -1.00000000</i>
    <i type="logical" name="LSORBIT"> F  </i>
    <v name="SAXIS">      0.00000000      0.00000000      1.00000000</v>
    <i type="logical" name="LSPIRAL"> F  </i>
    <v name="QSPIRAL">      0.00000000      0.00000000      0.00000000</v>
    <i type="logical" name="LZEROZ"> F  </i>
   </separator>
   <separator name="electronic exchange-correlation" >
    <i type="logical" name="LASPH"> F  </i>
    <i type="logical" name="LMETAGGA"> F  </i>
   </separator>
   <separator name="electronic convergence" >
    <i type="int" name="NELM">    60</i>
    <i type="int" name="NELMDL">    -5</i>
    <i type="int" name="NELMIN">     2</i>
    <i name="ENINI">    400.00000000</i>
    <separator name="electronic convergence detail" >
     <i type="logical" name="LDIAG"> T  </i>
     <i type="logical" name="LSUBROT"> F  </i>
     <i name="WEIMIN">      0.00100000</i>
     <i name="EBREAK">      0.00000001</i>
     <i name="DEPER">      0.30000000</i>
     <i type="int" name="NRMM">     4</i>
     <i name="TIME">      0.40000000</i>
    </separator>
   </separator>
   <separator name="electronic mixer" >
    <i name="AMIX">      0.40000000</i>
    <i name="BMIX">      1.00000000</i>
    <i name="AMIN">      0.10000000</i>
    <i name="AMIX_MAG">      1.60000000</i>
    <i name="BMIX_MAG">      1.00000000</i>
    <separator name="electronic mixer details" >
     <i type="int" name="IMIX">     4</i>
     <i type="logical" name="MIXFIRST"> F  </i>
     <i type="int" name="MAXMIX">   -45</i>
     <i name="WC">    100.00000000</i>
     <i type="int" name="INIMIX">     1</i>
     <i type="int" name="MIXPRE">     1</i>
     <i type="int" name="MREMOVE">     5</i>
    </separator>
   </separator>
   <separator name="electronic dipolcorrection" >
    <i type="logical" name="LDIPOL"> F  </i>
    <i type="logical" name="LMONO"> F  </i>
    <i type="int" name="IDIPOL">     0</i>
    <i name="EPSILON">      1.00000000</i>
    <v name="DIPOL">   -100.00000000   -100.00000000   -100.00000000</v>
    <i name="EFIELD">      0.00000000</i>
   </separator>
  </separator>
  <separator name="grids" >
   <i type="int" name="NGX">    56</i>
   <i type="int" name="NGY">    56</i>
   <i type="int" name="NGZ">    56</i>
   <i type="int" name="NGXF">   112</i>
   <i type="int" name="NGYF">   112</i>
   <i type="int" name="NGZF">   112</i>
   <i type="logical" name="ADDGRID"> F  </i>
  </separator>
  <separator name="ionic" >
   <i type="int" name="NSW">   100</i>
   <i type="int" name="IBRION">     2</i>
   <i type="int" name="MDALGO">     0</i>
   <i type="int" name="ISIF">     3</i>
   <i name="PSTRESS">      0.00000000</i>
   <i name="EDIFFG">     -0.01000000</i>
   <i type="int" name="NFREE">     1</i>
   <i name="POTIM">      0.50000000</i>
   <i name="SMASS">     -3.00000000</i>
   <i name="SCALEE">      1.00000000</i>
  </separator>
  <separator name="ionic md" >
   <i name="TEBEG">      0.00010000</i>
   <i name="TEEND">      0.00010000</i>
   <i type="int" name="NBLOCK">     1</i>
   <i type="int" name="KBLOCK">   100</i>
   <i type="int" name="NPACO">   256</i>
   <i name="APACO">     16.00000000</i>
  </separator>
  <separator name="symmetry" >
   <i type="int" name="ISYM">     2</i>
   <i name="SYMPREC">      0.00001000</i>
  </separator>
  <separator name="dos" >
   <i type="int" name="LORBIT">     0</i>
   <v name="RWIGS">     -1.00000000     -1.00000000     -1.00000000     -1.00000000     -1.00000000     -1.00000000     -1.00000000</v>
   <i type="int" name="NEDOS">   301</i>
   <i name="EMIN">     10.00000000</i>
   <i name="EMAX">    -10.00000000</i>
   <i name="EFERMI">      0.00000000</i>
  </separator>
  <separator name="writing" >
   <i type="int" name="NWRITE">     2</i>
   <i type="logical" name="LWAVE"> F  </i>
   <i type="logical" name="LDOWNSAMPLE"> F  </i>
   <i type="logical" name="LCHARG"> F  </i>
   <i type="logical" name="LPARD"> F  </i>
   <i type="logical" name="LVTOT"> F  </i>
   <i type="logical" name="LVHAR"> F  </i>
   <i type="logical" name="LELF"> F  </i>
   <i type="logical" name="LOPTICS"> F  </i>
   <v name="STM">      0.00000000      0.00000000      0.00000000      0.00000000      0.00000000      0.00000000      0.00000000</v>
  </separator>
  <separator name="performance" >
   <i type="int" name="NPAR">    24</i>
   <i type="int" name="NSIM">     4</i>
   <i type="int" name="NBLK">    -1</i>
   <i type="logical" name="LPLANE"> T  </i>
   <i type="logical" name="LSCALAPACK"> T  </i>
   <i type="logical" name="LSCAAWARE"> F  </i>
   <i type="logical" name="LSCALU"> F  </i>
   <i type="logical" name="LASYNC"> F  </i>
   <i type="logical" name="LORBITALREAL"> F  </i>
  </separator>
  <separator name="miscellaneous" >
   <i type="int" name="IDIOT">     3</i>
   <i type="int" name="ISPECIAL">     0</i>
   <i type="logical" name="LMUSIC"> F  </i>
   <v name="POMASS">     47.88000000     95.94000000    178.49000000     14.00100000     12.01100000    183.85000000    180.94800000</v>
   <v name="DARWINR">      0.00000000      0.00000000      0.00000000      0.00000000      0.00000000      0.00000000      0.00000000</v>
   <v name="DARWINV">      1.00000000      1.00000000      1.00000000      1.00000000      1.00000000      1.00000000      1.00000000</v>
   <i type="logical" name="LCORR"> T  </i>
  </separator>
  <i type="logical" name="GGA_COMPAT"> T  </i>
  <i type="logical" name="LBERRY"> F  </i>
  <i type="int" name="ICORELEVEL">     0</i>
  <i type="logical" name="LDAU"> F  </i>
  <i type="int" name="I_CONSTRAINED_M">     0</i>
  <separator name="electronic exchange-correlation" >
   <i type="string" name="GGA">--</i>
   <i type="int" name="VOSKOWN">     0</i>
   <i type="logical" name="LHFCALC"> F  </i>
   <i type="string" name="PRECFOCK"></i>
   <i type="logical" name="LSYMGRAD"> F  </i>
   <i type="logical" name="LHFONE"> F  </i>
   <i type="logical" name="LRHFCALC"> F  </i>
   <i type="logical" name="LTHOMAS"> F  </i>
   <i type="logical" name="LMODELHF"> F  </i>
   <i name="ENCUT4O">     -1.00000000</i>
   <i type="int" name="EXXOEP">     0</i>
   <i type="int" name="FOURORBIT">     0</i>
   <i name="AEXX">      0.00000000</i>
   <i name="HFALPHA">      0.00000000</i>
   <i name="MCALPHA">      0.00000000</i>
   <i name="ALDAX">      1.00000000</i>
   <i name="AGGAX">      1.00000000</i>
   <i name="ALDAC">      1.00000000</i>
   <i name="AGGAC">      1.00000000</i>
   <i type="int" name="NKREDX">     1</i>
   <i type="int" name="NKREDY">     1</i>
   <i type="int" name="NKREDZ">     1</i>
   <i type="logical" name="SHIFTRED"> F  </i>
   <i type="logical" name="ODDONLY"> F  </i>
   <i type="logical" name="EVENONLY"> F  </i>
   <i type="int" name="LMAXFOCK">     0</i>
   <i type="int" name="NMAXFOCKAE">     0</i>
   <i type="logical" name="LFOCKAEDFT"> F  </i>
   <i name="HFSCREEN">      0.00000000</i>
   <i name="HFSCREENC">      0.00000000</i>
   <i type="int" name="NBANDSGWLOW">     0</i>
  </separator>
  <separator name="vdW DFT" >
   <i type="logical" name="LUSE_VDW"> F  </i>
   <i name="Zab_VDW">     -0.84910000</i>
   <i name="PARAM1">      0.12340000</i>
   <i name="PARAM2">      1.00000000</i>
   <i name="PARAM3">      0.00000000</i>
  </separator>
  <separator name="model GW" >
   <i type="int" name="MODEL_GW">     0</i>
   <i name="MODEL_EPS0">     13.31282379</i>
   <i name="MODEL_ALPHA">      1.00000000</i>
  </separator>
  <separator name="linear response parameters" >
   <i type="logical" name="LEPSILON"> F  </i>
   <i type="logical" name="LRPA"> F  </i>
   <i type="logical" name="LNABLA"> F  </i>
   <i type="logical" name="LVEL"> F  </i>
   <i type="int" name="KINTER">     0</i>
   <i name="CSHIFT">      0.10000000</i>
   <i name="OMEGAMAX">     -1.00000000</i>
   <i name="DEG_THRESHOLD">      0.00200000</i>
   <i name="RTIME">     -0.10000000</i>
   <i name="WPLASMAI">      0.00000000</i>
   <v name="DFIELD">      0.00000000      0.00000000      0.00000000</v>
   <v name="WPLASMA">      0.00000000      0.00000000      0.00000000      0.00000000      0.00000000      0.00000000      0.00000000      0.00000000      0.00000000</v>
  </separator>
  <separator name="orbital magnetization" >
   <i type="logical" name="NUCIND"> F  </i>
   <v name="MAGPOS">      0.00000000      0.00000000      0.00000000</v>
   <i type="logical" name="LNICSALL"> T  </i>
   <i type="logical" name="ORBITALMAG"> F  </i>
   <i type="logical" name="LMAGBLOCH"> F  </i>
   <i type="logical" name="LCHIMAG"> F  </i>
   <i type="logical" name="LGAUGE"> T  </i>
   <i type="int" name="MAGATOM">     0</i>
   <v name="MAGDIPOL">      0.00000000      0.00000000      0.00000000</v>
   <v name="AVECCONST">      0.00000000      0.00000000      0.00000000</v>
  </separator>
  <separator name="response functions" >
   <i type="logical" name="LADDER"> F  </i>
   <i type="logical" name="LRPAFORCE"> F  </i>
   <i type="logical" name="LFXC"> F  </i>
   <i type="logical" name="LHARTREE"> T  </i>
   <i type="int" name="IBSE">     0</i>
   <v type="int" name="KPOINT">    -1     0     0     0</v>
   <i type="logical" name="LTCTE"> F  </i>
   <i type="logical" name="LTETE"> F  </i>
   <i type="logical" name="LTRIPLET"> F  </i>
   <i type="logical" name="LFXCEPS"> F  </i>
   <i type="logical" name="LFXHEG"> F  </i>
   <i type="int" name="NATURALO">     2</i>
   <i type="logical" name="L2ORDER"> F  </i>
   <i type="logical" name="LMP2LT"> F  </i>
   <i type="logical" name="LUSEW"> F  </i>
   <i name="ENCUTGW">     -2.00000000</i>
   <i name="ENCUTGWSOFT">     -2.00000000</i>
   <i name="ENCUTLF">     -1.00000000</i>
   <i type="int" name="LMAXMP2">    -1</i>
   <i name="SCISSOR">      0.00000000</i>
   <i type="int" name="NOMEGA">     0</i>
   <i type="int" name="NOMEGAR">     0</i>
   <i type="int" name="NBANDSGW">    -1</i>
   <i type="int" name="NBANDSO">    -1</i>
   <i type="int" name="NBANDSV">    -1</i>
   <i type="int" name="NELM">    60</i>
   <i type="int" name="NELMHF">     1</i>
   <i type="int" name="DIM">     3</i>
   <i type="int" name="ANTIRES">     0</i>
   <i name="OMEGAMAX">    -30.00000000</i>
   <i name="OMEGAMIN">    -30.00000000</i>
   <i name="OMEGATL">   -200.00000000</i>
   <i type="int" name="OMEGAGRID">   140</i>
   <i name="CSHIFT">     -0.10000000</i>
   <i type="logical" name="SELFENERGY"> F  </i>
   <i type="logical" name="LSPECTRAL"> F  </i>
   <i type="logical" name="LSPECTRALGW"> F  </i>
   <i type="logical" name="LSINGLES"> F  </i>
   <i type="logical" name="LFERMIGW"> F  </i>
   <i type="logical" name="ODDONLYGW"> F  </i>
   <i type="logical" name="EVENONLYGW"> F  </i>
   <i type="int" name="NKREDLFX">     1</i>
   <i type="int" name="NKREDLFY">     1</i>
   <i type="int" name="NKREDLFZ">     1</i>
   <i type="int" name="MAXMEM">  2800</i>
   <i type="int" name="TELESCOPE">     0</i>
   <i type="int" name="TAUPAR">     1</i>
   <i type="int" name="OMEGAPAR">    -1</i>
   <i name="LAMBDA">      1.00000000</i>
  </separator>
  <separator name="External order field" >
   <i name="OFIELD_KAPPA">      0.00000000</i>
   <v name="OFIELD_K">      0.00000000      0.00000000      0.00000000</v>
   <i name="OFIELD_Q6_NEAR">      0.00000000</i>
   <i name="OFIELD_Q6_FAR">      0.00000000</i>
   <i name="OFIELD_A">      0.00000000</i>
  </separator>
 </parameters>
 <atominfo>
  <atoms>      64 </atoms>
  <types>       7 </types>
  <array name="atoms" >
   <dimension dim="1">ion</dimension>
   <field type="string">element</field>
   <field type="int">atomtype</field>
   <set>
    <rc><c>Ti</c><c>   1</c></rc>
    <rc><c>Ti</c><c>   1</c></rc>
    <rc><c>Ti</c><c>   1</c></rc>
    <rc><c>Ti</c><c>   1</c></rc>
    <rc><c>Ti</c><c>   1</c></rc>
    <rc><c>Ti</c><c>   1</c></rc>
    <rc><c>Ti</c><c>   1</c></rc>
    <rc><c>Mo</c><c>   2</c></rc>
    <rc><c>Mo</c><c>   2</c></rc>
    <rc><c>Mo</c><c>   2</c></rc>
    <rc><c>Mo</c><c>   2</c></rc>
    <rc><c>Mo</c><c>   2</c></rc>
    <rc><c>Mo</c><c>   2</c></rc>
    <rc><c>Hf</c><c>   3</c></rc>
    <rc><c>Hf</c><c>   3</c></rc>
    <rc><c>Hf</c><c>   3</c></rc>
    <rc><c>Hf</c><c>   3</c></rc>
    <rc><c>Hf</c><c>   3</c></rc>
    <rc><c>Hf</c><c>   3</c></rc>
    <rc><c>Hf</c><c>   3</c></rc>
    <rc><c>N </c><c>   4</c></rc>
    <rc><c>N </c><c>   4</c></rc>
    <rc><c>N </c><c>   4</c></rc>
    <rc><c>N </c><c>   4</c></rc>
    <rc><c>N </c><c>   4</c></rc>
    <rc><c>N </c><c>   4</c></rc>
    <rc><c>N </c><c>   4</c></rc>
    <rc><c>N </c><c>   4</c></rc>
    <rc><c>N </c><c>   4</c></rc>
    <rc><c>N </c><c>   4</c></rc>
    <rc><c>N </c><c>   4</c></rc>
    <rc><c>N </c><c>   4</c></rc>
    <rc><c>N </c><c>   4</c></rc>
    <rc><c>C </c><c>   5</c></rc>
    <rc><c>C </c><c>   5</c></rc>
    <rc><c>C </c><c>   5</c></rc>
    <rc><c>C </c><c>   5</c></rc>
    <rc><c>C </c><c>   5</c></rc>
    <rc><c>C </c><c>   5</c></rc>
    <rc><c>C </c><c>   5</c></rc>
    <rc><c>C </c><c>   5</c></rc>
    <rc><c>C </c><c>   5</c></rc>
    <rc><c>C </c><c>   5</c></rc>
    <rc><c>C </c><c>   5</c></rc>
    <rc><c>C </c><c>   5</c></rc>
    <rc><c>C </c><c>   5</c></rc>
    <rc><c>C </c><c>   5</c></rc>
    <rc><c>C </c><c>   5</c></rc>
    <rc><c>C </c><c>   5</c></rc>
    <rc><c>C </c><c>   5</c></rc>
    <rc><c>C </c><c>   5</c></rc>
    <rc><c>C </c><c>   5</c></rc>
    <rc><c>W </c><c>   6</c></rc>
    <rc><c>W </c><c>   6</c></rc>
    <rc><c>W </c><c>   6</c></rc>
    <rc><c>W </c><c>   6</c></rc>
    <rc><c>W </c><c>   6</c></rc>
    <rc><c>W </c><c>   6</c></rc>
    <rc><c>Ta</c><c>   7</c></rc>
    <rc><c>Ta</c><c>   7</c></rc>
    <rc><c>Ta</c><c>   7</c></rc>
    <rc><c>Ta</c><c>   7</c></rc>
    <rc><c>Ta</c><c>   7</c></rc>
    <rc><c>Ta</c><c>   7</c></rc>
   </set>
  </array>
  <array name="atomtypes" >
   <dimension dim="1">type</dimension>
   <field type="int">atomspertype</field>
   <field type="string">element</field>
   <field>mass</field>
   <field>valence</field>
   <field type="string">pseudopotential</field>
   <set>
    <rc><c>   7</c><c>Ti</c><c>     47.88000000</c><c>     12.00000000</c><c> PAW_PBE Ti_sv 07Sep2000                </c></rc>
    <rc><c>   6</c><c>Mo</c><c>     95.94000000</c><c>      6.00000000</c><c> PAW_PBE Mo 08Apr2002                   </c></rc>
    <rc><c>   7</c><c>Hf</c><c>    178.49000000</c><c>     10.00000000</c><c> PAW_PBE Hf_pv 06Sep2000                </c></rc>
    <rc><c>  13</c><c>N </c><c>     14.00100000</c><c>      5.00000000</c><c> PAW_PBE N 08Apr2002                    </c></rc>
    <rc><c>  19</c><c>C </c><c>     12.01100000</c><c>      4.00000000</c><c> PAW_PBE C 08Apr2002                    </c></rc>
    <rc><c>   6</c><c>W </c><c>    183.85000000</c><c>     12.00000000</c><c> PAW_PBE W_pv 06Sep2000                 </c></rc>
    <rc><c>   6</c><c>Ta</c><c>    180.94800000</c><c>     11.00000000</c><c> PAW_PBE Ta_pv 07Sep2000                </c></rc>
   </set>
  </array>
 </atominfo>
 <structure name="initialpos" >
  <crystal>
   <varray name="basis" >
    <v>      11.23999977       0.00000000       0.00000000 </v>
    <v>       0.00000000      11.23999977       0.00000000 </v>
    <v>       0.00000000       0.00000000      11.23999977 </v>
   </varray>
   <i name="volume">   1420.03453724 </i>
   <varray name="rec_basis" >
    <v>       0.08896797       0.00000000       0.00000000 </v>
    <v>       0.00000000       0.08896797       0.00000000 </v>
    <v>       0.00000000       0.00000000       0.08896797 </v>
   </varray>
  </crystal>
  <varray name="positions" >
   <v>       0.00000000       0.00000000       0.00000000 </v>
   <v>       0.25000000       0.00000000       0.25000000 </v>
   <v>       0.25000000       0.50000000       0.25000000 </v>
   <v>       0.50000000       0.50000000       0.00000000 </v>
   <v>       0.50000000       0.25000000       0.75000004 </v>
   <v>       0.00000000       0.50000000       0.50000000 </v>
   <v>       0.50000000       0.75000004       0.75000004 </v>
   <v>       0.00000000       0.25000000       0.25000000 </v>
   <v>       0.75000004       0.75000004       0.00000000 </v>
   <v>       0.00000000       0.25000000       0.75000004 </v>
   <v>       0.75000004       0.25000000       0.50000000 </v>
   <v>       0.00000000       0.75000004       0.75000004 </v>
   <v>       0.25000000       0.50000000       0.75000004 </v>
   <v>       0.25000000       0.25000000       0.00000000 </v>
   <v>       0.50000000       0.25000000       0.25000000 </v>
   <v>       0.75000004       0.00000000       0.25000000 </v>
   <v>       0.75000004       0.25000000       0.00000000 </v>
   <v>       0.25000000       0.75000004       0.00000000 </v>
   <v>       0.25000000       0.25000000       0.50000000 </v>
   <v>       0.25000000       0.75000004       0.50000000 </v>
   <v>       0.25000000       0.25000000       0.25000000 </v>
   <v>       0.25000000       0.00000000       0.00000000 </v>
   <v>       0.00000000       0.25000000       0.00000000 </v>
   <v>       0.75000004       0.25000000       0.25000000 </v>
   <v>       0.75000004       0.00000000       0.00000000 </v>
   <v>       0.50000000       0.00000000       0.25000000 </v>
   <v>       0.00000000       0.50000000       0.25000000 </v>
   <v>       0.50000000       0.75000004       0.00000000 </v>
   <v>       0.00000000       0.00000000       0.75000004 </v>
   <v>       0.75000004       0.25000000       0.75000004 </v>
   <v>       0.75000004       0.00000000       0.50000000 </v>
   <v>       0.50000000       0.25000000       0.50000000 </v>
   <v>       0.50000000       0.00000000       0.75000004 </v>
   <v>       0.00000000       0.00000000       0.25000000 </v>
   <v>       0.50000000       0.25000000       0.00000000 </v>
   <v>       0.25000000       0.75000004       0.25000000 </v>
   <v>       0.25000000       0.50000000       0.00000000 </v>
   <v>       0.00000000       0.75000004       0.00000000 </v>
   <v>       0.75000004       0.75000004       0.25000000 </v>
   <v>       0.75000004       0.50000000       0.00000000 </v>
   <v>       0.50000000       0.50000000       0.25000000 </v>
   <v>       0.25000000       0.25000000       0.75000004 </v>
   <v>       0.25000000       0.00000000       0.50000000 </v>
   <v>       0.00000000       0.25000000       0.50000000 </v>
   <v>       0.25000000       0.75000004       0.75000004 </v>
   <v>       0.25000000       0.50000000       0.50000000 </v>
   <v>       0.00000000       0.75000004       0.50000000 </v>
   <v>       0.00000000       0.50000000       0.75000004 </v>
   <v>       0.75000004       0.75000004       0.75000004 </v>
   <v>       0.75000004       0.50000000       0.50000000 </v>
   <v>       0.50000000       0.75000004       0.50000000 </v>
   <v>       0.50000000       0.50000000       0.75000004 </v>
   <v>       0.50000000       0.00000000       0.00000000 </v>
   <v>       0.00000000       0.50000000       0.00000000 </v>
   <v>       0.50000000       0.75000004       0.25000000 </v>
   <v>       0.25000000       0.00000000       0.75000004 </v>
   <v>       0.50000000       0.00000000       0.50000000 </v>
   <v>       0.75000004       0.00000000       0.75000004 </v>
   <v>       0.00000000       0.75000004       0.25000000 </v>
   <v>       0.75000004       0.50000000       0.25000000 </v>
   <v>       0.00000000       0.00000000       0.50000000 </v>
   <v>       0.50000000       0.50000000       0.50000000 </v>
   <v>       0.75000004       0.50000000       0.75000004 </v>
   <v>       0.75000004       0.75000004       0.50000000 </v>
  </varray>
 </structure>
 <calculation>
  <scstep>
   <time name="dav">   87.94   88.33</time>
   <time name="total">   88.00   88.39</time>
   <energy>
    <i name="alphaZ">   2021.88372955 </i>
    <i name="ewald"> -27702.28211052 </i>
    <i name="hartreedc">  -9135.94640246 </i>
    <i name="XCdc">    986.44281245 </i>
    <i name="pawpsdc">  23684.77030084 </i>
    <i name="pawaedc"> -22895.93030800 </i>
    <i name="eentropy">     -0.07929379 </i>
    <i name="bandstr">  -1937.55482402 </i>
    <i name="atom">  38503.42979815 </i>
    <i name="e_fr_energy">   3524.73370220 </i>
    <i name="e_wo_entrp">   3524.81299599 </i>
    <i name="e_0_energy">   3524.77334909 </i>
   </energy>
  </scstep>
  <scstep>
   <time name="dav">   80.90   81.16</time>
   <time name="total">   80.90   81.16</time>
   <energy>
    <i name="e_fr_energy">      1.38985522 </i>
    <i name="e_wo_entrp">      1.59290979 </i>
    <i name="e_0_energy">      1.49138251 </i>
   </energy>
  </scstep>
  <scstep>
   <time name="dav">  117.00  117.34</time>
   <time name="total">  117.00  117.34</time>
   <energy>
    <i name="e_fr_energy">   -568.97051116 </i>
    <i name="e_wo_entrp">   -568.73843802 </i>
    <i name="e_0_energy">   -568.85447459 </i>
   </energy>
  </scstep>
  <scstep>
   <time name="dav">  112.34  112.58</time>
   <time name="total">  112.35  112.59</time>
   <energy>
    <i name="e_fr_energy">   -624.27726914 </i>
    <i name="e_wo_entrp">   -624.02344646 </i>
    <i name="e_0_energy">   -624.15035780 </i>
   </energy>
  </scstep>
  <scstep>
   <time name="dav">  129.17  130.09</time>
   <time name="total">  129.81  130.72</time>
   <energy>
    <i name="e_fr_energy">   -631.21504821 </i>
    <i name="e_wo_entrp">   -630.94058911 </i>
    <i name="e_0_energy">   -631.07781866 </i>
   </energy>
  </scstep>
  <scstep>
   <time name="diag">    2.74    2.74</time>
   <time name="diis">   89.82   90.04</time>
   <time name="orth">    0.63    0.63</time>
   <time name="total">   93.88   94.11</time>
   <energy>
    <i name="e_fr_energy">   -570.19553400 </i>
    <i name="e_wo_entrp">   -569.85626491 </i>
    <i name="e_0_energy">   -570.02589945 </i>
   </energy>
  </scstep>
  <scstep>
   <time name="diag">    2.77    2.77</time>
   <time name="diis">   89.61   90.00</time>
   <time name="orth">    0.63    0.63</time>
   <time name="total">   93.68   94.07</time>
   <energy>
    <i name="e_fr_energy">   -508.54524814 </i>
    <i name="e_wo_entrp">   -508.23960656 </i>
    <i name="e_0_energy">   -508.39242735 </i>
   </energy>
  </scstep>
  <scstep>
   <time name="diag">    2.77    2.78</time>
   <time name="diis">   88.90   89.17</time>
   <time name="orth">    0.62    0.63</time>
   <time name="total">   93.00   93.30</time>
   <energy>
    <i name="e_fr_energy">   -477.54806462 </i>
    <i name="e_wo_entrp">   -477.12946948 </i>
    <i name="e_0_energy">   -477.33876705 </i>
   </energy>
  </scstep>
  <scstep>
   <time name="diag">    2.74    2.74</time>
   <time name="diis">   88.74   89.11</time>
   <time name="orth">    0.66    0.66</time>
   <time name="total">   92.86   93.23</time>
   <energy>
    <i name="e_fr_energy">   -477.30110679 </i>
    <i name="e_wo_entrp">   -476.87403373 </i>
    <i name="e_0_energy">   -477.08757026 </i>
   </energy>
  </scstep>
  <scstep>
   <time name="diag">    2.75    2.75</time>
   <time name="diis">   89.52   89.81</time>
   <time name="orth">    0.63    0.63</time>
   <time name="total">   93.63   93.92</time>
   <energy>
    <i name="e_fr_energy">   -475.18916389 </i>
    <i name="e_wo_entrp">   -474.71770734 </i>
    <i name="e_0_energy">   -474.95343562 </i>
   </energy>
  </scstep>
  <scstep>
   <time name="diag">    2.75    2.76</time>
   <time name="diis">   88.64   89.02</time>
   <time name="orth">    0.63    0.63</time>
   <time name="total">   92.74   93.12</time>
   <energy>
    <i name="e_fr_energy">   -475.86185534 </i>
    <i name="e_wo_entrp">   -475.45669242 </i>
    <i name="e_0_energy">   -475.65927388 </i>
   </energy>
  </scstep>
  <scstep>
   <time name="diag">    2.76    2.76</time>
   <time name="diis">   89.79   90.03</time>
   <time name="orth">    0.64    0.65</time>
   <time name="total">   93.92   94.17</time>
   <energy>
    <i name="e_fr_energy">   -474.64961374 </i>
    <i name="e_wo_entrp">   -474.21907409 </i>
    <i name="e_0_energy">   -474.43434392 </i>
   </energy>
  </scstep>
  <scstep>
   <time name="diag">    2.75    2.75</time>
   <time name="diis">   90.19   90.50</time>
   <time name="orth">    0.63    0.63</time>
   <time name="total">   94.30   94.62</time>
   <energy>
    <i name="e_fr_energy">   -474.33892364 </i>
    <i name="e_wo_entrp">   -473.90010807 </i>
    <i name="e_0_energy">   -474.11951586 </i>
   </energy>
  </scstep>
  <scstep>
   <time name="diag">    2.76    2.77</time>
   <time name="diis">   90.14   90.35</time>
   <time name="orth">    0.62    0.62</time>
   <time name="total">   94.25   94.47</time>
   <energy>
    <i name="e_fr_energy">   -473.69686969 </i>
    <i name="e_wo_entrp">   -473.24060823 </i>
    <i name="e_0_energy">   -473.46873896 </i>
   </energy>
  </scstep>
  <scstep>
   <time name="diag">    2.74    2.74</time>
   <time name="diis">   89.88   90.05</time>
   <time name="orth">    0.63    0.63</time>
   <time name="total">   93.99   94.16</time>
   <energy>
    <i name="e_fr_energy">   -473.29800573 </i>
    <i name="e_wo_entrp">   -472.81562580 </i>
    <i name="e_0_energy">   -473.05681576 </i>
   </energy>
  </scstep>
  <scstep>
   <time name="diag">    2.77    2.78</time>
   <time name="diis">   91.19   91.40</time>
   <time name="orth">    0.64    0.65</time>
   <time name="total">   95.37   95.58</time>
   <energy>
    <i name="e_fr_energy">   -473.38480557 </i>
    <i name="e_wo_entrp">   -472.91448479 </i>
    <i name="e_0_energy">   -473.14964518 </i>
   </energy>
  </scstep>
  <scstep>
   <time name="diag">    2.76    2.79</time>
   <time name="diis">   89.91   90.33</time>
   <time name="orth">    0.62    0.62</time>
   <time name="total">   94.02   94.49</time>
   <energy>
    <i name="e_fr_energy">   -473.30395719 </i>
    <i name="e_wo_entrp">   -472.82579560 </i>
    <i name="e_0_energy">   -473.06487639 </i>
   </energy>
  </scstep>
  <scstep>
   <time name="diag">    2.76    2.76</time>
   <time name="diis">   92.41   92.77</time>
   <time name="orth">    0.63    0.66</time>
   <time name="total">   96.56   96.95</time>
   <energy>
    <i name="e_fr_energy">   -473.27353752 </i>
    <i name="e_wo_entrp">   -472.78855042 </i>
    <i name="e_0_energy">   -473.03104397 </i>
   </energy>
  </scstep>
  <scstep>
   <time name="diag">    2.76    2.76</time>
   <time name="diis">   89.23   89.35</time>
   <time name="orth">    0.62    0.62</time>
   <time name="total">   93.35   93.48</time>
   <energy>
    <i name="e_fr_energy">   -473.29457938 </i>
    <i name="e_wo_entrp">   -472.81170582 </i>
    <i name="e_0_energy">   -473.05314260 </i>
   </energy>
  </scstep>
  <scstep>
   <time name="diag">    2.74    2.74</time>
   <time name="diis">   89.36   89.60</time>
   <time name="orth">    0.63    0.63</time>
   <time name="total">   93.46   93.71</time>
   <energy>
    <i name="e_fr_energy">   -473.27298571 </i>
    <i name="e_wo_entrp">   -472.78607825 </i>
    <i name="e_0_energy">   -473.02953198 </i>
   </energy>
  </scstep>
  <scstep>
   <time name="diag">    2.74    2.75</time>
   <time name="diis">   91.76   91.97</time>
   <time name="orth">    0.63    0.63</time>
   <time name="total">   95.87   96.08</time>
   <energy>
    <i name="e_fr_energy">   -473.28125599 </i>
    <i name="e_wo_entrp">   -472.80304699 </i>
    <i name="e_0_energy">   -473.04215149 </i>
   </energy>
  </scstep>
  <scstep>
   <time name="diag">    2.80    2.81</time>
   <time name="diis">   89.48   89.65</time>
   <time name="orth">    0.63    0.63</time>
   <time name="total">   93.65   93.83</time>
   <energy>
    <i name="e_fr_energy">   -473.27773937 </i>
    <i name="e_wo_entrp">   -472.79330417 </i>
    <i name="e_0_energy">   -473.03552177 </i>
   </energy>
  </scstep>
  <scstep>
   <time name="diag">    2.76    2.76</time>
   <time name="diis">   89.84   90.11</time>
   <time name="orth">    0.65    0.65</time>
   <time name="total">   93.99   94.27</time>
   <energy>
    <i name="e_fr_energy">   -473.28127187 </i>
    <i name="e_wo_entrp">   -472.79567616 </i>
    <i name="e_0_energy">   -473.03847402 </i>
   </energy>
  </scstep>
  <scstep>
   <time name="diag">    2.78    2.78</time>
   <time name="diis">   92.18   92.29</time>
   <time name="orth">    0.63    0.63</time>
   <time name="total">   96.35   96.46</time>
   <energy>
    <i name="e_fr_energy">   -473.28187338 </i>
    <i name="e_wo_entrp">   -472.79611702 </i>
    <i name="e_0_energy">   -473.03899520 </i>
   </energy>
  </scstep>
  <scstep>
   <time name="diag">    2.80    2.80</time>
   <time name="diis">   87.10   87.26</time>
   <time name="orth">    0.62    0.63</time>
   <time name="total">   91.27   91.44</time>
   <energy>
    <i name="e_fr_energy">   -473.28330150 </i>
    <i name="e_wo_entrp">   -472.79651268 </i>
    <i name="e_0_energy">   -473.03990709 </i>
   </energy>
  </scstep>
  <scstep>
   <time name="diag">    2.77    2.77</time>
   <time name="diis">   86.40   86.58</time>
   <time name="orth">    0.63    0.65</time>
   <time name="total">   90.54   90.74</time>
   <energy>
    <i name="e_fr_energy">   -473.28524277 </i>
    <i name="e_wo_entrp">   -472.79778254 </i>
    <i name="e_0_energy">   -473.04151266 </i>
   </energy>
  </scstep>
  <scstep>
   <time name="diag">    2.75    2.75</time>
   <time name="diis">   86.27   86.47</time>
   <time name="orth">    0.62    0.63</time>
   <time name="total">   90.38   90.59</time>
   <energy>
    <i name="e_fr_energy">   -473.28577956 </i>
    <i name="e_wo_entrp">   -472.79808192 </i>
    <i name="e_0_energy">   -473.04193074 </i>
   </energy>
  </scstep>
  <scstep>
   <time name="diag">    2.76    2.77</time>
   <time name="diis">   82.10   82.41</time>
   <time name="orth">    0.62    0.62</time>
   <time name="total">   86.22   86.54</time>
   <energy>
    <i name="e_fr_energy">   -473.28670549 </i>
    <i name="e_wo_entrp">   -472.79884102 </i>
    <i name="e_0_energy">   -473.04277325 </i>
   </energy>
  </scstep>
  <scstep>
   <time name="diag">    2.78    2.79</time>
   <time name="diis">   81.08   81.38</time>
   <time name="orth">    0.63    0.63</time>
   <time name="total">   85.24   85.56</time>
   <energy>
    <i name="e_fr_energy">   -473.28725386 </i>
    <i name="e_wo_entrp">   -472.79910287 </i>
    <i name="e_0_energy">   -473.04317836 </i>
   </energy>
  </scstep>
  <scstep>
   <time name="diag">    2.76    2.77</time>
   <time name="diis">   77.47   77.72</time>
   <time name="orth">    0.63    0.63</time>
   <time name="total">   81.59   81.87</time>
   <energy>
    <i name="e_fr_energy">   -473.28782464 </i>
    <i name="e_wo_entrp">   -472.79940785 </i>
    <i name="e_0_energy">   -473.04361624 </i>
   </energy>
  </scstep>
  <scstep>
   <time name="diag">    2.75    2.76</time>
   <time name="diis">   77.66   77.82</time>
   <time name="orth">    0.63    0.63</time>
   <time name="total">   81.78   81.96</time>
   <energy>
    <i name="e_fr_energy">   -473.28819110 </i>
    <i name="e_wo_entrp">   -472.79968391 </i>
    <i name="e_0_energy">   -473.04393750 </i>
   </energy>
  </scstep>
  <scstep>
   <time name="diag">    2.76    2.76</time>
   <time name="diis">   65.93   66.06</time>
   <time name="orth">    0.63    0.63</time>
   <time name="total">   70.05   70.18</time>
   <energy>
    <i name="e_fr_energy">   -473.28850466 </i>
    <i name="e_wo_entrp">   -472.79976316 </i>
    <i name="e_0_energy">   -473.04413391 </i>
   </energy>
  </scstep>
  <scstep>
   <time name="diag">    2.77    2.77</time>
   <time name="diis">   75.83   76.04</time>
   <time name="orth">    0.63    0.63</time>
   <time name="total">   79.96   80.18</time>
   <energy>
    <i name="e_fr_energy">   -473.28871459 </i>
    <i name="e_wo_entrp">   -472.79981286 </i>
    <i name="e_0_energy">   -473.04426373 </i>
   </energy>
  </scstep>
  <scstep>
   <time name="diag">    2.80    2.80</time>
   <time name="diis">   64.14   64.25</time>
   <time name="orth">    0.62    0.63</time>
   <time name="total">   68.29   68.41</time>
   <energy>
    <i name="e_fr_energy">   -473.28891159 </i>
    <i name="e_wo_entrp">   -472.79990553 </i>
    <i name="e_0_energy">   -473.04440856 </i>
   </energy>
  </scstep>
  <scstep>
   <time name="diag">    2.73    2.74</time>
   <time name="diis">   58.69   58.91</time>
   <time name="orth">    0.63    0.63</time>
   <time name="total">   62.79   63.01</time>
   <energy>
    <i name="e_fr_energy">   -473.28905587 </i>
    <i name="e_wo_entrp">   -472.79992483 </i>
    <i name="e_0_energy">   -473.04449035 </i>
   </energy>
  </scstep>
  <scstep>
   <time name="diag">    2.76    2.77</time>
   <time name="diis">   55.97   56.15</time>
   <time name="orth">    0.63    0.63</time>
   <time name="total">   60.10   60.29</time>
   <energy>
    <i name="e_fr_energy">   -473.28917143 </i>
    <i name="e_wo_entrp">   -472.79999016 </i>
    <i name="e_0_energy">   -473.04458079 </i>
   </energy>
  </scstep>
  <scstep>
   <time name="diag">    2.75    2.76</time>
   <time name="diis">   49.35   49.44</time>
   <time name="orth">    0.62    0.62</time>
   <time name="total">   53.47   53.57</time>
   <energy>
    <i name="e_fr_energy">   -473.28926709 </i>
    <i name="e_wo_entrp">   -472.79997574 </i>
    <i name="e_0_energy">   -473.04462142 </i>
   </energy>
  </scstep>
  <scstep>
   <time name="diag">    2.78    2.79</time>
   <time name="diis">   48.34   48.42</time>
   <time name="orth">    0.62    0.62</time>
   <time name="total">   52.48   52.58</time>
   <energy>
    <i name="e_fr_energy">   -473.28933287 </i>
    <i name="e_wo_entrp">   -472.79995791 </i>
    <i name="e_0_energy">   -473.04464539 </i>
   </energy>
  </scstep>
  <scstep>
   <time name="diag">    2.76    2.77</time>
   <time name="diis">   49.08   49.15</time>
   <time name="orth">    0.63    0.63</time>
   <time name="total">   53.20   53.30</time>
   <energy>
    <i name="e_fr_energy">   -473.28939432 </i>
    <i name="e_wo_entrp">   -472.79994096 </i>
    <i name="e_0_energy">   -473.04466764 </i>
   </energy>
  </scstep>
  <scstep>
   <time name="diag">    2.79    2.85</time>
   <time name="diis">   48.01   48.10</time>
   <time name="orth">    0.63    0.63</time>
   <time name="total">   52.17   52.33</time>
   <energy>
    <i name="e_fr_energy">   -473.28943899 </i>
    <i name="e_wo_entrp">   -472.79993180 </i>
    <i name="e_0_energy">   -473.04468539 </i>
   </energy>
  </scstep>
  <scstep>
   <time name="diag">    2.75    2.76</time>
   <time name="diis">   47.12   47.28</time>
   <time name="orth">    0.63    0.63</time>
   <time name="total">   51.26   51.43</time>
   <energy>
    <i name="e_fr_energy">   -473.28947845 </i>
    <i name="e_wo_entrp">   -472.79991986 </i>
    <i name="e_0_energy">   -473.04469916 </i>
   </energy>
  </scstep>
  <scstep>
   <time name="diag">    2.77    2.79</time>
   <time name="diis">   45.89   46.05</time>
   <time name="orth">    0.63    0.63</time>
   <time name="total">   50.05   50.24</time>
   <energy>
    <i name="e_fr_energy">   -473.28950823 </i>
    <i name="e_wo_entrp">   -472.79989692 </i>
    <i name="e_0_energy">   -473.04470258 </i>
   </energy>
  </scstep>
  <scstep>
   <time name="diag">    2.75    2.76</time>
   <time name="diis">   46.27   46.45</time>
   <time name="orth">    0.62    0.62</time>
   <time name="total">   50.39   50.58</time>
   <energy>
    <i name="e_fr_energy">   -473.28953293 </i>
    <i name="e_wo_entrp">   -472.79989032 </i>
    <i name="e_0_energy">   -473.04471163 </i>
   </energy>
  </scstep>
  <scstep>
   <time name="diag">    2.76    2.76</time>
   <time name="diis">   45.41   45.55</time>
   <time name="orth">    0.62    0.62</time>
   <time name="total">   49.54   49.69</time>
   <energy>
    <i name="e_fr_energy">   -473.28955118 </i>
    <i name="e_wo_entrp">   -472.79987594 </i>
    <i name="e_0_energy">   -473.04471356 </i>
   </energy>
  </scstep>
  <scstep>
   <time name="diag">    2.76    2.78</time>
   <time name="diis">   44.27   44.43</time>
   <time name="orth">    0.62    0.63</time>
   <time name="total">   48.41   48.59</time>
   <energy>
    <i name="e_fr_energy">   -473.28956744 </i>
    <i name="e_wo_entrp">   -472.79986401 </i>
    <i name="e_0_energy">   -473.04471572 </i>
   </energy>
  </scstep>
  <scstep>
   <time name="diag">    2.74    2.74</time>
   <time name="diis">   44.66   44.79</time>
   <time name="orth">    0.62    0.62</time>
   <time name="total">   48.78   48.91</time>
   <energy>
    <i name="e_fr_energy">   -473.28957936 </i>
    <i name="e_wo_entrp">   -472.79985380 </i>
    <i name="e_0_energy">   -473.04471658 </i>
   </energy>
  </scstep>
  <scstep>
   <time name="diag">    2.75    2.75</time>
   <time name="diis">   44.99   45.17</time>
   <time name="orth">    0.62    0.62</time>
   <time name="total">   49.12   49.30</time>
   <energy>
    <i name="e_fr_energy">   -473.28959011 </i>
    <i name="e_wo_entrp">   -472.79984282 </i>
    <i name="e_0_energy">   -473.04471647 </i>
   </energy>
  </scstep>
  <scstep>
   <time name="diag">    2.76    2.77</time>
   <time name="diis">   44.34   44.46</time>
   <time name="orth">    0.63    0.63</time>
   <time name="total">   47.78   47.91</time>
   <energy>
    <i name="alphaZ">   2021.88372955 </i>
    <i name="ewald"> -27702.28211052 </i>
    <i name="hartreedc">  -8451.10805037 </i>
    <i name="XCdc">    966.65596611 </i>
    <i name="pawpsdc">  21940.33426635 </i>
    <i name="pawaedc"> -21209.86988493 </i>
    <i name="eentropy">     -0.48976521 </i>
    <i name="bandstr">  -6541.84354695 </i>
    <i name="atom">  38503.42979815 </i>
    <i name="e_fr_energy">   -473.28959782 </i>
    <i name="e_wo_entrp">   -472.79983261 </i>
    <i name="e_0_energy">   -473.04471522 </i>
   </energy>
  </scstep>
  <structure>
   <crystal>
    <varray name="basis" >
     <v>      11.23999977       0.00000000       0.00000000 </v>
     <v>       0.00000000      11.23999977       0.00000000 </v>
     <v>       0.00000000       0.00000000      11.23999977 </v>
    </varray>
    <i name="volume">   1420.03453724 </i>
    <varray name="rec_basis" >
     <v>       0.08896797       0.00000000       0.00000000 </v>
     <v>       0.00000000       0.08896797       0.00000000 </v>
     <v>       0.00000000       0.00000000       0.08896797 </v>
    </varray>
   </crystal>
   <varray name="positions" >
    <v>       0.00000000       0.00000000       0.00000000 </v>
    <v>       0.25000000       0.00000000       0.25000000 </v>
    <v>       0.25000000       0.50000000       0.25000000 </v>
    <v>       0.50000000       0.50000000       0.00000000 </v>
    <v>       0.50000000       0.25000000       0.75000004 </v>
    <v>       0.00000000       0.50000000       0.50000000 </v>
    <v>       0.50000000       0.75000004       0.75000004 </v>
    <v>       0.00000000       0.25000000       0.25000000 </v>
    <v>       0.75000004       0.75000004       0.00000000 </v>
    <v>       0.00000000       0.25000000       0.75000004 </v>
    <v>       0.75000004       0.25000000       0.50000000 </v>
    <v>       0.00000000       0.75000004       0.75000004 </v>
    <v>       0.25000000       0.50000000       0.75000004 </v>
    <v>       0.25000000       0.25000000       0.00000000 </v>
    <v>       0.50000000       0.25000000       0.25000000 </v>
    <v>       0.75000004       0.00000000       0.25000000 </v>
    <v>       0.75000004       0.25000000       0.00000000 </v>
    <v>       0.25000000       0.75000004       0.00000000 </v>
    <v>       0.25000000       0.25000000       0.50000000 </v>
    <v>       0.25000000       0.75000004       0.50000000 </v>
    <v>       0.25000000       0.25000000       0.25000000 </v>
    <v>       0.25000000       0.00000000       0.00000000 </v>
    <v>       0.00000000       0.25000000       0.00000000 </v>
    <v>       0.75000004       0.25000000       0.25000000 </v>
    <v>       0.75000004       0.00000000       0.00000000 </v>
    <v>       0.50000000       0.00000000       0.25000000 </v>
    <v>       0.00000000       0.50000000       0.25000000 </v>
    <v>       0.50000000       0.75000004       0.00000000 </v>
    <v>       0.00000000       0.00000000       0.75000004 </v>
    <v>       0.75000004       0.25000000       0.75000004 </v>
    <v>       0.75000004       0.00000000       0.50000000 </v>
    <v>       0.50000000       0.25000000       0.50000000 </v>
    <v>       0.50000000       0.00000000       0.75000004 </v>
    <v>       0.00000000       0.00000000       0.25000000 </v>
    <v>       0.50000000       0.25000000       0.00000000 </v>
    <v>       0.25000000       0.75000004       0.25000000 </v>
    <v>       0.25000000       0.50000000       0.00000000 </v>
    <v>       0.00000000       0.75000004       0.00000000 </v>
    <v>       0.75000004       0.75000004       0.25000000 </v>
    <v>       0.75000004       0.50000000       0.00000000 </v>
    <v>       0.50000000       0.50000000       0.25000000 </v>
    <v>       0.25000000       0.25000000       0.75000004 </v>
    <v>       0.25000000       0.00000000       0.50000000 </v>
    <v>       0.00000000       0.25000000       0.50000000 </v>
    <v>       0.25000000       0.75000004       0.75000004 </v>
    <v>       0.25000000       0.50000000       0.50000000 </v>
    <v>       0.00000000       0.75000004       0.50000000 </v>
    <v>       0.00000000       0.50000000       0.75000004 </v>
    <v>       0.75000004       0.75000004       0.75000004 </v>
    <v>       0.75000004       0.50000000       0.50000000 </v>
    <v>       0.50000000       0.75000004       0.50000000 </v>
    <v>       0.50000000       0.50000000       0.75000004 </v>
    <v>       0.50000000       0.00000000       0.00000000 </v>
    <v>       0.00000000       0.50000000       0.00000000 </v>
    <v>       0.50000000       0.75000004       0.25000000 </v>
    <v>       0.25000000       0.00000000       0.75000004 </v>
    <v>       0.50000000       0.00000000       0.50000000 </v>
    <v>       0.75000004       0.00000000       0.75000004 </v>
    <v>       0.00000000       0.75000004       0.25000000 </v>
    <v>       0.75000004       0.50000000       0.25000000 </v>
    <v>       0.00000000       0.00000000       0.50000000 </v>
    <v>       0.50000000       0.50000000       0.50000000 </v>
    <v>       0.75000004       0.50000000       0.75000004 </v>
    <v>       0.75000004       0.75000004       0.50000000 </v>
   </varray>
  </structure>
  <varray name="forces" >
   <v>      -0.03271959      -0.32102619       0.07060494 </v>
   <v>      -0.21472965      -0.37357884       0.30733143 </v>
   <v>       0.23910143       0.34505557      -0.02232809 </v>
   <v>      -0.01774575      -0.19084510      -0.06313884 </v>
   <v>      -0.24187763       0.01258353       0.15845401 </v>
   <v>      -0.04697935      -0.13252122       0.32465213 </v>
   <v>       0.00089240      -0.08043582      -0.23491022 </v>
   <v>      -0.14504709      -0.54572093       0.45895126 </v>
   <v>       0.58114784      -0.50944789      -0.05286745 </v>
   <v>       0.47420799       0.37780331      -0.54722592 </v>
   <v>       0.64434952       0.53010896       0.19286990 </v>
   <v>      -0.07708197      -0.38639158       0.03345159 </v>
   <v>      -0.00755736       0.04315118       0.05335114 </v>
   <v>      -0.03743464       0.22831717      -0.44644121 </v>
   <v>       0.02734539       0.21778901      -0.12571101 </v>
   <v>       0.12323112      -0.39959947       0.04681191 </v>
   <v>      -0.04046792       0.24934582      -0.22654374 </v>
   <v>      -0.14944573      -0.21918132      -0.12785942 </v>
   <v>      -0.33362277      -0.02115375       0.43668123 </v>
   <v>       0.02318606       0.02644880       0.13701837 </v>
   <v>       0.64958714      -0.04517279      -0.03450778 </v>
   <v>       0.30983762       0.02527092      -0.21406968 </v>
   <v>       0.02588758       0.24467745       0.00754379 </v>
   <v>      -0.56527532      -0.11249599      -0.52315681 </v>
   <v>      -0.32048248       0.56821735       0.17242853 </v>
   <v>       0.56788536       0.30555481      -0.02743386 </v>
   <v>      -0.55921038       0.45335828      -0.29269877 </v>
   <v>      -0.54668973       0.34349918       0.25167636 </v>
   <v>      -0.08711696       0.03639453      -0.44592927 </v>
   <v>      -0.05621101       0.11564382       0.52017390 </v>
   <v>       0.22290633      -0.40723460      -0.17196065 </v>
   <v>      -0.51561748       0.22021955      -0.50282095 </v>
   <v>       0.06994268       0.03060965       0.02502425 </v>
   <v>      -0.46203587      -0.35277404       0.51943247 </v>
   <v>       0.05064151      -0.57293761       0.46064970 </v>
   <v>      -0.09890707       0.04436804      -0.08386155 </v>
   <v>      -0.50479136      -0.04227598      -0.02328485 </v>
   <v>       0.15308717      -0.47009832       0.35102830 </v>
   <v>       0.08341302      -0.09903374       0.34447955 </v>
   <v>       0.44426679      -0.27843228       0.03532192 </v>
   <v>       0.61340090      -0.01674562       0.52308182 </v>
   <v>      -0.18228630      -0.38142971       0.05966016 </v>
   <v>      -0.06248826       0.06332776       0.45149032 </v>
   <v>       0.12923184      -0.52315335       0.03089849 </v>
   <v>      -0.13596840       0.38948713       0.06800268 </v>
   <v>       0.51036467      -0.06354685       0.00635872 </v>
   <v>      -0.17348992       0.51317183      -0.36276260 </v>
   <v>      -0.42461800      -0.03113335       0.54153088 </v>
   <v>       0.11893264       0.03025755      -0.35047359 </v>
   <v>      -0.43335270       0.36882541      -0.01926039 </v>
   <v>       0.17972106      -0.01933323      -0.43540373 </v>
   <v>       0.49334309      -0.01383899      -0.56798969 </v>
   <v>       0.11149820       0.44489610      -0.15730394 </v>
   <v>      -0.02050101       0.52557865      -0.59955632 </v>
   <v>       0.12771426      -0.46453610       0.44188525 </v>
   <v>      -0.03920909      -0.06240882      -0.52846309 </v>
   <v>      -0.51980493      -0.63532931       0.16463567 </v>
   <v>       0.03702121      -0.68429519      -0.07399093 </v>
   <v>      -0.03951588       0.41677658      -0.05327151 </v>
   <v>      -0.29455248       0.61589663      -0.03454865 </v>
   <v>       0.39758555       0.16641716      -0.07597430 </v>
   <v>      -0.00366463       0.46841515       0.12090496 </v>
   <v>      -0.01220367       0.49123045       0.02316530 </v>
   <v>      -0.00702802      -0.45658937       0.08619788 </v>
  </varray>
  <varray name="stress" >
   <v>    -435.83986164      -0.06931091       0.00677923 </v>
   <v>      -0.06931072    -436.75186163      -0.21336796 </v>
   <v>       0.00677917      -0.21336794    -433.75041597 </v>
  </varray>
  <energy>
   <i name="e_fr_energy">   -473.28959782 </i>
   <i name="e_wo_entrp">   -473.04471522 </i>
   <i name="e_0_energy">     -0.48976521 </i>
  </energy>
  <time name="totalsc"> 4022.69 4034.69</time>
 </calculation>
 <calculation>
  <scstep>
   <time name="dav">   81.95   83.17</time>
   <time name="total">   82.61   83.84</time>
   <energy>
    <i name="alphaZ">   5671.17994623 </i>
    <i name="ewald"> -39074.23060548 </i>
    <i name="hartreedc"> -11908.12607742 </i>
    <i name="XCdc">   1608.52063769 </i>
    <i name="pawpsdc">  21940.33544689 </i>
    <i name="pawaedc"> -21209.87105634 </i>
    <i name="eentropy">     -0.05998243 </i>
    <i name="bandstr">   1494.85073291 </i>
    <i name="atom">  38503.42979815 </i>
    <i name="e_fr_energy">  -2973.97115980 </i>
    <i name="e_wo_entrp">  -2973.91117737 </i>
    <i name="e_0_energy">  -2973.94116858 </i>
   </energy>
  </scstep>
  <scstep>
   <time name="diag">    2.75    2.76</time>
   <time name="diis">   90.96   91.14</time>
   <time name="orth">    0.62    0.62</time>
   <time name="total">   94.98   95.17</time>
   <energy>
    <i name="e_fr_energy">  -1384.86640940 </i>
    <i name="e_wo_entrp">  -1384.74618552 </i>
    <i name="e_0_energy">  -1384.80629746 </i>
   </energy>
  </scstep>
  <scstep>
   <time name="diag">    2.78    2.79</time>
   <time name="diis">   69.05   69.21</time>
   <time name="orth">    0.63    0.63</time>
   <time name="total">   73.12   73.28</time>
   <energy>
    <i name="e_fr_energy">   -629.75795315 </i>
    <i name="e_wo_entrp">   -629.66860025 </i>
    <i name="e_0_energy">   -629.71327670 </i>
   </energy>
  </scstep>
  <scstep>
   <time name="diag">    2.74    2.74</time>
   <time name="diis">   84.48   84.65</time>
   <time name="orth">    0.62    0.62</time>
   <time name="total">   88.50   88.68</time>
   <energy>
    <i name="e_fr_energy">   -589.84721663 </i>
    <i name="e_wo_entrp">   -589.72438630 </i>
    <i name="e_0_energy">   -589.78580146 </i>
   </energy>
  </scstep>
  <scstep>
   <time name="diag">    2.74    2.74</time>
   <time name="diis">   89.41   89.66</time>
   <time name="orth">    0.63    0.63</time>
   <time name="total">   93.43   93.69</time>
   <energy>
    <i name="e_fr_energy">   -578.48230768 </i>
    <i name="e_wo_entrp">   -578.40948117 </i>
    <i name="e_0_energy">   -578.44589443 </i>
   </energy>
  </scstep>
  <scstep>
   <time name="diag">    2.76    2.77</time>
   <time name="diis">  103.19  103.57</time>
   <time name="orth">    0.63    0.63</time>
   <time name="total">  107.25  107.65</time>
   <energy>
    <i name="e_fr_energy">   -578.39113578 </i>
    <i name="e_wo_entrp">   -578.30748768 </i>
    <i name="e_0_energy">   -578.34931173 </i>
   </energy>
  </scstep>
  <scstep>
   <time name="diag">    2.76    2.76</time>
   <time name="diis">  103.91  104.11</time>
   <time name="orth">    0.64    0.64</time>
   <time name="total">  107.99  108.20</time>
   <energy>
    <i name="e_fr_energy">   -580.23536620 </i>
    <i name="e_wo_entrp">   -580.15155859 </i>
    <i name="e_0_energy">   -580.19346240 </i>
   </energy>
  </scstep>
  <scstep>
   <time name="diag">    2.76    2.77</time>
   <time name="diis">  101.44  101.78</time>
   <time name="orth">    0.63    0.63</time>
   <time name="total">  105.49  105.85</time>
   <energy>
    <i name="e_fr_energy">   -581.57634844 </i>
    <i name="e_wo_entrp">   -581.48876457 </i>
    <i name="e_0_energy">   -581.53255650 </i>
   </energy>
  </scstep>
  <scstep>
   <time name="diag">    2.76    2.76</time>
   <time name="diis">  106.45  106.67</time>
   <time name="orth">    0.62    0.62</time>
   <time name="total">  110.50  110.72</time>
   <energy>
    <i name="e_fr_energy">   -582.34157178 </i>
    <i name="e_wo_entrp">   -582.26040404 </i>
    <i name="e_0_energy">   -582.30098791 </i>
   </energy>
  </scstep>
  <scstep>
   <time name="diag">    2.76    2.76</time>
   <time name="diis">  101.80  102.19</time>
   <time name="orth">    0.63    0.63</time>
   <time name="total">  105.86  106.26</time>
   <energy>
    <i name="e_fr_energy">   -582.58178337 </i>
    <i name="e_wo_entrp">   -582.49769021 </i>
    <i name="e_0_energy">   -582.53973679 </i>
   </energy>
  </scstep>
  <scstep>
   <time name="diag">    2.79    2.79</time>
   <time name="diis">  105.59  105.89</time>
   <time name="orth">    0.65    0.67</time>
   <time name="total">  109.69  110.03</time>
   <energy>
    <i name="e_fr_energy">   -582.65347996 </i>
    <i name="e_wo_entrp">   -582.56978010 </i>
    <i name="e_0_energy">   -582.61163003 </i>
   </energy>
  </scstep>
  <scstep>
   <time name="diag">    2.75    2.75</time>
   <time name="diis">  106.02  106.23</time>
   <time name="orth">    0.62    0.62</time>
   <time name="total">  110.04  110.30</time>
   <energy>
    <i name="e_fr_energy">   -582.67292350 </i>
    <i name="e_wo_entrp">   -582.58942108 </i>
    <i name="e_0_energy">   -582.63117229 </i>
   </energy>
  </scstep>
  <scstep>
   <time name="diag">    2.80    2.83</time>
   <time name="diis">  103.95  104.20</time>
   <time name="orth">    0.63    0.63</time>
   <time name="total">  108.03  108.31</time>
   <energy>
    <i name="e_fr_energy">   -582.67765203 </i>
    <i name="e_wo_entrp">   -582.59421196 </i>
    <i name="e_0_energy">   -582.63593199 </i>
   </energy>
  </scstep>
  <scstep>
   <time name="diag">    2.74    2.74</time>
   <time name="diis">  105.03  105.39</time>
   <time name="orth">    0.63    0.64</time>
   <time name="total">  109.07  109.44</time>
   <energy>
    <i name="e_fr_energy">   -582.67992107 </i>
    <i name="e_wo_entrp">   -582.59684119 </i>
    <i name="e_0_energy">   -582.63838113 </i>
   </energy>
  </scstep>
  <scstep>
   <time name="diag">    2.77    2.77</time>
   <time name="diis">  105.34  105.70</time>
   <time name="orth">    0.63    0.63</time>
   <time name="total">  109.41  109.76</time>
   <energy>
    <i name="e_fr_energy">   -582.68069345 </i>
    <i name="e_wo_entrp">   -582.59746009 </i>
    <i name="e_0_energy">   -582.63907677 </i>
   </energy>
  </scstep>
  <scstep>
   <time name="diag">    2.77    2.77</time>
   <time name="diis">  104.70  104.88</time>
   <time name="orth">    0.63    0.63</time>
   <time name="total">  108.75  108.94</time>
   <energy>
    <i name="e_fr_energy">   -582.68106596 </i>
    <i name="e_wo_entrp">   -582.59786938 </i>
    <i name="e_0_energy">   -582.63946767 </i>
   </energy>
  </scstep>
  <scstep>
   <time name="diag">    2.77    2.78</time>
   <time name="diis">  101.60  101.92</time>
   <time name="orth">    0.63    0.63</time>
   <time name="total">  105.67  105.99</time>
   <energy>
    <i name="e_fr_energy">   -582.68123263 </i>
    <i name="e_wo_entrp">   -582.59803071 </i>
    <i name="e_0_energy">   -582.63963167 </i>
   </energy>
  </scstep>
  <scstep>
   <time name="diag">    2.76    2.76</time>
   <time name="diis">  100.07  100.36</time>
   <time name="orth">    0.63    0.63</time>
   <time name="total">  104.13  104.43</time>
   <energy>
    <i name="e_fr_energy">   -582.68129632 </i>
    <i name="e_wo_entrp">   -582.59811944 </i>
    <i name="e_0_energy">   -582.63970788 </i>
   </energy>
  </scstep>
  <scstep>
   <time name="diag">    2.76    2.76</time>
   <time name="diis">   92.42   92.78</time>
   <time name="orth">    0.63    0.63</time>
   <time name="total">   96.48   96.84</time>
   <energy>
    <i name="e_fr_energy">   -582.68132668 </i>
    <i name="e_wo_entrp">   -582.59815635 </i>
    <i name="e_0_energy">   -582.63974151 </i>
   </energy>
  </scstep>
  <scstep>
   <time name="diag">    2.77    2.77</time>
   <time name="diis">   78.84   79.03</time>
   <time name="orth">    0.62    0.62</time>
   <time name="total">   82.89   83.08</time>
   <energy>
    <i name="e_fr_energy">   -582.68134284 </i>
    <i name="e_wo_entrp">   -582.59817039 </i>
    <i name="e_0_energy">   -582.63975662 </i>
   </energy>
  </scstep>
  <scstep>
   <time name="diag">    2.75    2.75</time>
   <time name="diis">   69.91   70.18</time>
   <time name="orth">    0.62    0.63</time>
   <time name="total">   73.34   73.61</time>
   <energy>
    <i name="alphaZ">   5671.17994623 </i>
    <i name="ewald"> -39074.23060548 </i>
    <i name="hartreedc">  -4822.06703312 </i>
    <i name="XCdc">   1195.76685473 </i>
    <i name="pawpsdc">  30264.57930571 </i>
    <i name="pawaedc"> -29544.14851110 </i>
    <i name="eentropy">     -0.08317263 </i>
    <i name="bandstr">  -2777.10793022 </i>
    <i name="atom">  38503.42979815 </i>
    <i name="e_fr_energy">   -582.68134772 </i>
    <i name="e_wo_entrp">   -582.59817510 </i>
    <i name="e_0_energy">   -582.63976141 </i>
   </energy>
  </scstep>
  <structure>
   <crystal>
    <varray name="basis" >
     <v>       7.96709933      -0.00052048       0.00005091 </v>
     <v>      -0.00052048       7.96025075      -0.00160227 </v>
     <v>       0.00005091      -0.00160227       7.98278984 </v>
    </varray>
    <i name="volume">    506.26937489 </i>
    <varray name="rec_basis" >
     <v>       0.12551620       0.00000821      -0.00000080 </v>
     <v>       0.00000821       0.12562419       0.00002521 </v>
     <v>      -0.00000080       0.00002521       0.12526949 </v>
    </varray>
   </crystal>
   <varray name="positions" >
    <v>      -0.00014043      -0.00137786       0.00030304 </v>
    <v>       0.24907837      -0.00160342       0.25131908 </v>
    <v>       0.25102624       0.50148100       0.24990417 </v>
    <v>       0.49992383       0.49918088      -0.00027100 </v>
    <v>       0.49896185       0.25005401       0.75068013 </v>
    <v>      -0.00020164       0.49943121       0.50139342 </v>
    <v>       0.50000383       0.74965481       0.74899180 </v>
    <v>      -0.00062255       0.24765774       0.25196984 </v>
    <v>       0.75249436       0.74781347      -0.00022691 </v>
    <v>       0.00203532       0.25162155       0.74765132 </v>
    <v>       0.75276562       0.25227525       0.50082781 </v>
    <v>      -0.00033084       0.74834163       0.75014362 </v>
    <v>       0.24996756       0.50018521       0.75022903 </v>
    <v>       0.24983933       0.25097995      -0.00191615 </v>
    <v>       0.50011737       0.25093476       0.24946044 </v>
    <v>       0.75052896      -0.00171510       0.25020092 </v>
    <v>       0.74982635       0.25107021      -0.00097234 </v>
    <v>       0.24935857       0.74905930      -0.00054878 </v>
    <v>       0.24856807       0.24990921       0.50187426 </v>
    <v>       0.25009952       0.75011356       0.50058809 </v>
    <v>       0.25278806       0.24980612       0.24985189 </v>
    <v>       0.25132984       0.00010846      -0.00091880 </v>
    <v>       0.00011111       0.25105017       0.00003238 </v>
    <v>       0.74757385       0.24951716       0.24775458 </v>
    <v>       0.74862451       0.00243882       0.00074007 </v>
    <v>       0.50243739       0.00131146       0.24988225 </v>
    <v>      -0.00240016       0.50194584       0.24874372 </v>
    <v>       0.49765358       0.75147436       0.00108021 </v>
    <v>      -0.00037391       0.00015621       0.74808609 </v>
    <v>       0.74975878       0.25049635       0.75223265 </v>
    <v>       0.75095677      -0.00174787       0.49926194 </v>
    <v>       0.49778694       0.25094519       0.49784187 </v>
    <v>       0.50030020       0.00013138       0.75010745 </v>
    <v>      -0.00198308      -0.00151412       0.25222943 </v>
    <v>       0.50021736       0.24754092       0.00197713 </v>
    <v>       0.24957549       0.75019047       0.24964006 </v>
    <v>       0.24783341       0.49981855      -0.00009994 </v>
    <v>       0.00065706       0.74798236       0.00150663 </v>
    <v>       0.75035805       0.74957498       0.25147852 </v>
    <v>       0.75190686       0.49880495       0.00015160 </v>
    <v>       0.50263275       0.49992813       0.25224509 </v>
    <v>       0.24921762       0.24836288       0.75025611 </v>
    <v>       0.24973180       0.00027181       0.50193782 </v>
    <v>       0.00055467       0.24775460       0.50013262 </v>
    <v>       0.24941642       0.75167174       0.75029191 </v>
    <v>       0.25219051       0.49972725       0.50002729 </v>
    <v>      -0.00074463       0.75220260       0.49844300 </v>
    <v>      -0.00182248       0.49986637       0.75232432 </v>
    <v>       0.75051051       0.75012991       0.74849579 </v>
    <v>       0.74814007       0.50158302       0.49991733 </v>
    <v>       0.50077137       0.74991706       0.49813122 </v>
    <v>       0.50211745       0.49994060       0.74756220 </v>
    <v>       0.50047856       0.00190952      -0.00067516 </v>
    <v>      -0.00008799       0.50225581      -0.00257333 </v>
    <v>       0.50054816       0.74800623       0.25189659 </v>
    <v>       0.24983171      -0.00026786       0.74773185 </v>
    <v>       0.49776897      -0.00272687       0.50070662 </v>
    <v>       0.75015894      -0.00293703       0.74968247 </v>
    <v>      -0.00016960       0.75178887       0.24977136 </v>
    <v>       0.74873581       0.50264346       0.24985172 </v>
    <v>       0.00170646       0.00071427       0.49967391 </v>
    <v>       0.49998427       0.50201046       0.50051893 </v>
    <v>       0.74994766       0.50210839       0.75009947 </v>
    <v>       0.74996988       0.74804034       0.50036997 </v>
   </varray>
  </structure>
  <varray name="forces" >
   <v>       0.25507678      -0.13120872      -0.00496897 </v>
   <v>       0.04063887       0.31265521      -0.25469477 </v>
   <v>      -0.00220837      -0.24511268      -0.02062939 </v>
   <v>      -0.29199820      -0.59580110      -0.21650638 </v>
   <v>      -0.12993494      -0.42982428       0.08340951 </v>
   <v>       0.10145848      -0.54890662      -0.12686468 </v>
   <v>       0.22052209       0.09813482       0.00519418 </v>
   <v>       0.44938727      -0.71298621      -0.02193481 </v>
   <v>       0.20978157       0.18729544      -0.25453651 </v>
   <v>       0.57345957       0.38095003      -0.00093707 </v>
   <v>       0.02625319       0.73868960       0.32231202 </v>
   <v>       0.00287404      -0.50943914       0.38898046 </v>
   <v>       0.49057782       0.07869687      -0.02429684 </v>
   <v>      -0.77598985      -0.86638442       1.16738299 </v>
   <v>      -0.89556720       0.19585503       0.10786214 </v>
   <v>      -0.00245596       0.86841247      -0.49915216 </v>
   <v>       0.56497669      -0.32717326      -0.35613283 </v>
   <v>       0.61071905       0.65084458       0.10543911 </v>
   <v>       0.34148714       0.54174701      -1.06919795 </v>
   <v>       0.10922264      -0.32429864      -0.03731123 </v>
   <v>      -0.89674632      -0.03769437      -0.01605368 </v>
   <v>      -1.63902977      -0.00922815       1.81515030 </v>
   <v>       0.21286918      -1.35471180       0.18760165 </v>
   <v>       0.77601239       0.62195992       0.84601270 </v>
   <v>       1.99272204      -1.09825811      -0.78330583 </v>
   <v>      -2.79796756      -0.82919469      -0.10820440 </v>
   <v>       2.28090089      -0.63477805       1.60351676 </v>
   <v>       0.82255149      -1.73583734      -1.64200607 </v>
   <v>       0.13560042      -0.02702663       2.30453524 </v>
   <v>      -1.92684001      -0.19633182      -1.09488867 </v>
   <v>      -0.43471423       0.49710248       0.69099309 </v>
   <v>       0.77779491      -0.28569168       2.54686070 </v>
   <v>      -0.16134855       0.04017422      -0.01576959 </v>
   <v>       2.86292686       0.65107718      -2.28113184 </v>
   <v>      -0.22250913       2.08990404      -2.65972935 </v>
   <v>       0.58699248       0.07250400      -0.02250468 </v>
   <v>       1.60040945      -0.03637652       1.87385070 </v>
   <v>      -0.66797478       1.97156548      -0.59813154 </v>
   <v>      -0.37470574      -0.37036973      -0.68884686 </v>
   <v>      -1.97847301       1.14696853       0.07739572 </v>
   <v>      -2.44894633       0.80037119      -2.21051168 </v>
   <v>       1.91804167       0.42825159      -0.00251772 </v>
   <v>       0.48112364      -0.13090050      -2.16143283 </v>
   <v>      -0.80560726       2.70221820      -0.02419240 </v>
   <v>       1.58391343      -0.33813507      -0.07011972 </v>
   <v>      -2.39363693       0.05634313      -1.75083622 </v>
   <v>       0.09289945      -2.27686585       0.73083895 </v>
   <v>       0.71216439      -0.00305080      -2.22861123 </v>
   <v>      -2.08519449       0.38996561       0.83670282 </v>
   <v>       2.49045883      -0.76103383      -0.02633387 </v>
   <v>      -0.26586370       0.26937464       2.07276754 </v>
   <v>      -0.74658778      -0.01950417       2.34345774 </v>
   <v>      -0.52361036       1.01365420      -0.21842455 </v>
   <v>       0.40348423       0.00857766       0.29130253 </v>
   <v>      -0.47694982      -0.41304937      -0.27886452 </v>
   <v>      -0.00546594      -0.14584669       0.61589844 </v>
   <v>      -0.67671907       0.04426097       0.10228546 </v>
   <v>       0.05256576      -0.03871145       0.41680190 </v>
   <v>       0.79512880       0.11968392      -0.11224110 </v>
   <v>       0.35613838      -0.91515311      -0.29465965 </v>
   <v>       0.25176868       0.39483810       0.00512214 </v>
   <v>      -0.69700418      -0.34113776       0.26914445 </v>
   <v>      -0.86908166      -0.34746686       0.19059691 </v>
   <v>       0.01022861      -0.33458670       0.17506542 </v>
  </varray>
  <varray name="stress" >
   <v>    1872.30340831       2.28071007      -0.04008944 </v>
   <v>       2.28071113    1905.60904938       2.22307381 </v>
   <v>      -0.04009036       2.22307508    1833.64309426 </v>
  </varray>
  <energy>
   <i name="e_fr_energy">   -582.68134772 </i>
   <i name="e_wo_entrp">   -582.63976141 </i>
   <i name="e_0_energy">     -0.08317263 </i>
  </energy>
  <time name="totalsc"> 2238.35 2245.67</time>
 </calculation>
 <calculation>
  <scstep>
   <time name="dav">   99.47   99.80</time>
   <time name="total">  100.16  100.49</time>
   <energy>
    <i name="alphaZ">   3970.94913324 </i>
    <i name="ewald"> -34696.61210277 </i>
    <i name="hartreedc">  -4284.09305387 </i>
    <i name="XCdc">   1006.10557142 </i>
    <i name="pawpsdc">  30264.57615957 </i>
    <i name="pawaedc"> -29544.14618167 </i>
    <i name="eentropy">     -0.15627838 </i>
    <i name="bandstr">  -6286.46046197 </i>
    <i name="atom">  38503.42979815 </i>
    <i name="e_fr_energy">  -1066.40741628 </i>
    <i name="e_wo_entrp">  -1066.25113790 </i>
    <i name="e_0_energy">  -1066.32927709 </i>
   </energy>
  </scstep>
  <scstep>
   <time name="diag">    2.78    2.78</time>
   <time name="diis">   95.70   96.00</time>
   <time name="orth">    0.63    0.63</time>
   <time name="total">   99.77  100.07</time>
   <energy>
    <i name="e_fr_energy">  -1246.01135891 </i>
    <i name="e_wo_entrp">  -1245.91486229 </i>
    <i name="e_0_energy">  -1245.96311060 </i>
   </energy>
  </scstep>
  <scstep>
   <time name="diag">    2.79    2.80</time>
   <time name="diis">   91.99   92.25</time>
   <time name="orth">    0.63    0.63</time>
   <time name="total">   96.08   96.35</time>
   <energy>
    <i name="e_fr_energy">   -848.61207573 </i>
    <i name="e_wo_entrp">   -848.50191853 </i>
    <i name="e_0_energy">   -848.55699713 </i>
   </energy>
  </scstep>
  <scstep>
   <time name="diag">    2.76    2.77</time>
   <time name="diis">   90.91   91.29</time>
   <time name="orth">    0.64    0.64</time>
   <time name="total">   95.01   95.40</time>
   <energy>
    <i name="e_fr_energy">   -751.67313190 </i>
    <i name="e_wo_entrp">   -751.55473073 </i>
    <i name="e_0_energy">   -751.61393132 </i>
   </energy>
  </scstep>
  <scstep>
   <time name="diag">    2.79    2.82</time>
   <time name="diis">   91.71   92.01</time>
   <time name="orth">    0.62    0.62</time>
   <time name="total">   95.80   96.13</time>
   <energy>
    <i name="e_fr_energy">   -675.19488554 </i>
    <i name="e_wo_entrp">   -675.03827137 </i>
    <i name="e_0_energy">   -675.11657845 </i>
   </energy>
  </scstep>
  <scstep>
   <time name="diag">    2.76    2.76</time>
   <time name="diis">   91.80   92.01</time>
   <time name="orth">    0.62    0.62</time>
   <time name="total">   95.87   96.07</time>
   <energy>
    <i name="e_fr_energy">   -670.43643739 </i>
    <i name="e_wo_entrp">   -670.24707898 </i>
    <i name="e_0_energy">   -670.34175818 </i>
   </energy>
  </scstep>
  <scstep>
   <time name="diag">    2.78    2.78</time>
   <time name="diis">   91.82   92.07</time>
   <time name="orth">    0.65    0.65</time>
[...]
      </set>
     </set>
    </set>
   </array>
  </eigenvalues>
  <separator name="orbital magnetization" >
   <v name="MAGDIPOLOUT">      0.00000000      0.00000000      0.00000000</v>
  </separator>
  <dos>
   <i name="efermi">      8.12327894 </i>
   <total>
    <array>
     <dimension dim="1">gridpoints</dimension>
     <dimension dim="2">spin</dimension>
     <field>energy</field>
     <field>total</field>
     <field>integrated</field>
     <set>
      <set comment="spin 1">
       <r>   -52.6594     0.0000     0.0000 </r>
       <r>   -52.4373     0.0000     0.0000 </r>
       <r>   -52.2152     0.0000     0.0000 </r>
       <r>   -51.9931     0.0000     0.0000 </r>
       <r>   -51.7710     0.0000     0.0000 </r>
       <r>   -51.5489     0.0000     0.0000 </r>
       <r>   -51.3269     0.0000     0.0000 </r>
       <r>   -51.1048     0.0000     0.0000 </r>
       <r>   -50.8827     0.0000     0.0000 </r>
       <r>   -50.6606     0.0000     0.0000 </r>
       <r>   -50.4385     0.0000     0.0000 </r>
       <r>   -50.2164     0.0000     0.0000 </r>
       <r>   -49.9943     0.0000     0.0000 </r>
       <r>   -49.7722     0.2055     0.0456 </r>
       <r>   -49.5501     7.7245     1.7612 </r>
       <r>   -49.3280    20.1317     6.2323 </r>
       <r>   -49.1059    27.1461    12.2613 </r>
       <r>   -48.8838     7.7951    13.9925 </r>
       <r>   -48.6617     0.0337    14.0000 </r>
       <r>   -48.4396     0.0000    14.0000 </r>
       <r>   -48.2175     0.0000    14.0000 </r>
       <r>   -47.9955     0.0000    14.0000 </r>
       <r>   -47.7734     0.0000    14.0000 </r>
       <r>   -47.5513     0.0000    14.0000 </r>
       <r>   -47.3292     0.0000    14.0000 </r>
       <r>   -47.1071     0.0000    14.0000 </r>
       <r>   -46.8850     0.0000    14.0000 </r>
       <r>   -46.6629     0.0000    14.0000 </r>
       <r>   -46.4408     0.0000    14.0000 </r>
       <r>   -46.2187     0.0000    14.0000 </r>
       <r>   -45.9966     0.0000    14.0000 </r>
       <r>   -45.7745     0.0000    14.0000 </r>
       <r>   -45.5524     0.0000    14.0000 </r>
       <r>   -45.3303     0.0000    14.0000 </r>
       <r>   -45.1082     0.0000    14.0000 </r>
       <r>   -44.8861     0.0000    14.0000 </r>
       <r>   -44.6641     0.0000    14.0000 </r>
       <r>   -44.4420     0.0000    14.0000 </r>
       <r>   -44.2199     0.0000    14.0000 </r>
       <r>   -43.9978     0.0000    14.0000 </r>
       <r>   -43.7757     0.0000    14.0000 </r>
       <r>   -43.5536     0.0000    14.0000 </r>
       <r>   -43.3315     0.0000    14.0000 </r>
       <r>   -43.1094     0.0000    14.0000 </r>
       <r>   -42.8873     0.0000    14.0000 </r>
       <r>   -42.6652     0.0000    14.0000 </r>
       <r>   -42.4431     0.0000    14.0000 </r>
       <r>   -42.2210     0.0000    14.0000 </r>
       <r>   -41.9989     0.0000    14.0000 </r>
       <r>   -41.7768     0.0000    14.0000 </r>
       <r>   -41.5547     0.0000    14.0000 </r>
       <r>   -41.3327     0.0000    14.0000 </r>
       <r>   -41.1106     0.0000    14.0000 </r>
       <r>   -40.8885     0.0000    14.0000 </r>
       <r>   -40.6664     0.0000    14.0000 </r>
       <r>   -40.4443     0.0000    14.0000 </r>
       <r>   -40.2222     0.0000    14.0000 </r>
       <r>   -40.0001     0.0000    14.0000 </r>
       <r>   -39.7780     0.0000    14.0000 </r>
       <r>   -39.5559     0.0000    14.0000 </r>
       <r>   -39.3338     0.0000    14.0000 </r>
       <r>   -39.1117     0.0000    14.0000 </r>
       <r>   -38.8896     0.0000    14.0000 </r>
       <r>   -38.6675     0.0000    14.0000 </r>
       <r>   -38.4454     0.0000    14.0000 </r>
       <r>   -38.2233     0.0000    14.0000 </r>
       <r>   -38.0013     0.0000    14.0000 </r>
       <r>   -37.7792     0.0000    14.0000 </r>
       <r>   -37.5571     0.0000    14.0000 </r>
       <r>   -37.3350     0.0000    14.0000 </r>
       <r>   -37.1129     0.0000    14.0000 </r>
       <r>   -36.8908     0.0000    14.0000 </r>
       <r>   -36.6687     0.0000    14.0000 </r>
       <r>   -36.4466     0.0000    14.0000 </r>
       <r>   -36.2245     0.0000    14.0000 </r>
       <r>   -36.0024     0.0000    14.0000 </r>
       <r>   -35.7803     0.0000    14.0000 </r>
       <r>   -35.5582     0.0000    14.0000 </r>
       <r>   -35.3361     0.0000    14.0000 </r>
       <r>   -35.1140     0.0000    14.0000 </r>
       <r>   -34.8919     0.0000    14.0000 </r>
       <r>   -34.6699     0.0000    14.0000 </r>
       <r>   -34.4478     0.0000    14.0000 </r>
       <r>   -34.2257     0.0000    14.0000 </r>
       <r>   -34.0036     0.0000    14.0000 </r>
       <r>   -33.7815     0.0000    14.0000 </r>
       <r>   -33.5594     0.0000    14.0000 </r>
       <r>   -33.3373     0.0000    14.0000 </r>
       <r>   -33.1152     0.0000    14.0000 </r>
       <r>   -32.8931     0.0000    14.0000 </r>
       <r>   -32.6710     0.0000    14.0000 </r>
       <r>   -32.4489     0.0000    14.0000 </r>
       <r>   -32.2268     0.0000    14.0000 </r>
       <r>   -32.0047     0.0000    14.0000 </r>
       <r>   -31.7826     0.0000    14.0000 </r>
       <r>   -31.5605     0.1092    14.0242 </r>
       <r>   -31.3385    12.8131    16.8699 </r>
       <r>   -31.1164    59.7708    30.1446 </r>
       <r>   -30.8943    67.9542    45.2368 </r>
       <r>   -30.6722    21.1535    49.9349 </r>
       <r>   -30.4501     0.2933    50.0000 </r>
       <r>   -30.2280     0.0000    50.0000 </r>
       <r>   -30.0059     0.0000    50.0000 </r>
       <r>   -29.7838     0.0000    50.0000 </r>
       <r>   -29.5617     0.0000    50.0000 </r>
       <r>   -29.3396     0.0000    50.0000 </r>
       <r>   -29.1175     0.0000    50.0000 </r>
       <r>   -28.8954     0.0000    50.0000 </r>
       <r>   -28.6733     0.0000    50.0000 </r>
       <r>   -28.4512     0.0000    50.0000 </r>
       <r>   -28.2292     0.0000    50.0000 </r>
       <r>   -28.0071     0.0000    50.0000 </r>
       <r>   -27.7850     0.0000    50.0000 </r>
       <r>   -27.5629     0.0320    50.0071 </r>
       <r>   -27.3408    14.4756    53.2221 </r>
       <r>   -27.1187    72.3086    69.2813 </r>
       <r>   -26.8966    70.1037    84.8509 </r>
       <r>   -26.6745     5.1726    85.9997 </r>
       <r>   -26.4524     0.0015    86.0000 </r>
       <r>   -26.2303     0.0413    86.0092 </r>
       <r>   -26.0082    12.6643    88.8218 </r>
       <r>   -25.7861    34.4073    96.4634 </r>
       <r>   -25.5640    95.5999   117.6955 </r>
       <r>   -25.3419    42.0569   127.0361 </r>
       <r>   -25.1198     4.3394   127.9998 </r>
       <r>   -24.8978     0.0008   128.0000 </r>
       <r>   -24.6757     0.0000   128.0000 </r>
       <r>   -24.4536     0.0000   128.0000 </r>
       <r>   -24.2315     0.0000   128.0000 </r>
       <r>   -24.0094     0.0000   128.0000 </r>
       <r>   -23.7873     0.0000   128.0000 </r>
       <r>   -23.5652     0.0000   128.0000 </r>
       <r>   -23.3431     0.2173   128.0483 </r>
       <r>   -23.1210    13.1567   130.9703 </r>
       <r>   -22.8989    39.0982   139.6537 </r>
       <r>   -22.6768    27.9554   145.8624 </r>
       <r>   -22.4547    21.5206   150.6420 </r>
       <r>   -22.2326    58.2553   163.5801 </r>
       <r>   -22.0105    12.7342   166.4083 </r>
       <r>   -21.7884    16.0930   169.9825 </r>
       <r>   -21.5664     0.0790   170.0000 </r>
       <r>   -21.3443     0.0000   170.0000 </r>
       <r>   -21.1222     0.0000   170.0000 </r>
       <r>   -20.9001     0.0000   170.0000 </r>
       <r>   -20.6780     0.0000   170.0000 </r>
       <r>   -20.4559     0.0000   170.0000 </r>
       <r>   -20.2338     0.0000   170.0000 </r>
       <r>   -20.0117     0.0000   170.0000 </r>
       <r>   -19.7896     0.0000   170.0000 </r>
       <r>   -19.5675     0.0000   170.0000 </r>
       <r>   -19.3454     0.0000   170.0000 </r>
       <r>   -19.1233     0.0000   170.0000 </r>
       <r>   -18.9012     0.0000   170.0000 </r>
       <r>   -18.6791     0.0000   170.0000 </r>
       <r>   -18.4570     0.0000   170.0000 </r>
       <r>   -18.2350     0.0000   170.0000 </r>
       <r>   -18.0129     0.0000   170.0000 </r>
       <r>   -17.7908     0.0000   170.0000 </r>
       <r>   -17.5687     0.0000   170.0000 </r>
       <r>   -17.3466     0.0000   170.0000 </r>
       <r>   -17.1245     0.0000   170.0000 </r>
       <r>   -16.9024     0.0000   170.0000 </r>
       <r>   -16.6803     0.0000   170.0000 </r>
       <r>   -16.4582     0.0000   170.0000 </r>
       <r>   -16.2361     0.0000   170.0000 </r>
       <r>   -16.0140     0.0000   170.0000 </r>
       <r>   -15.7919     0.0000   170.0000 </r>
       <r>   -15.5698     0.0000   170.0000 </r>
       <r>   -15.3477     0.0000   170.0000 </r>
       <r>   -15.1256     0.0000   170.0000 </r>
       <r>   -14.9036     0.0000   170.0000 </r>
       <r>   -14.6815     0.0000   170.0000 </r>
       <r>   -14.4594     0.0000   170.0000 </r>
       <r>   -14.2373     0.0000   170.0000 </r>
       <r>   -14.0152     0.0000   170.0000 </r>
       <r>   -13.7931     0.0000   170.0000 </r>
       <r>   -13.5710     0.0000   170.0000 </r>
       <r>   -13.3489     0.0000   170.0000 </r>
       <r>   -13.1268     0.0000   170.0000 </r>
       <r>   -12.9047     0.0000   170.0000 </r>
       <r>   -12.6826     0.0000   170.0000 </r>
       <r>   -12.4605     0.0000   170.0000 </r>
       <r>   -12.2384     0.0000   170.0000 </r>
       <r>   -12.0163     0.0000   170.0000 </r>
       <r>   -11.7942     0.0000   170.0000 </r>
       <r>   -11.5722     0.0000   170.0000 </r>
       <r>   -11.3501     0.0000   170.0000 </r>
       <r>   -11.1280     0.0000   170.0000 </r>
       <r>   -10.9059     0.0000   170.0000 </r>
       <r>   -10.6838     0.0000   170.0000 </r>
       <r>   -10.4617     0.0000   170.0000 </r>
       <r>   -10.2396     0.0000   170.0000 </r>
       <r>   -10.0175     0.0000   170.0000 </r>
       <r>    -9.7954     0.0000   170.0000 </r>
       <r>    -9.5733     0.0000   170.0000 </r>
       <r>    -9.3512     0.0000   170.0000 </r>
       <r>    -9.1291     0.0000   170.0000 </r>
       <r>    -8.9070     0.0000   170.0000 </r>
       <r>    -8.6849     0.0468   170.0104 </r>
       <r>    -8.4628     2.6796   170.6055 </r>
       <r>    -8.2408     5.8957   171.9149 </r>
       <r>    -8.0187     4.9893   173.0230 </r>
       <r>    -7.7966    14.4896   176.2410 </r>
       <r>    -7.5745     9.9294   178.4463 </r>
       <r>    -7.3524     9.2593   180.5027 </r>
       <r>    -7.1303    19.9582   184.9353 </r>
       <r>    -6.9082    16.8969   188.6880 </r>
       <r>    -6.6861    20.6552   193.2754 </r>
       <r>    -6.4640    12.1771   195.9798 </r>
       <r>    -6.2419     0.0910   196.0000 </r>
       <r>    -6.0198     0.0000   196.0000 </r>
       <r>    -5.7977     0.0000   196.0000 </r>
       <r>    -5.5756     0.0000   196.0000 </r>
       <r>    -5.3535     0.0000   196.0000 </r>
       <r>    -5.1314     0.0106   196.0023 </r>
       <r>    -4.9094     1.9326   196.4316 </r>
       <r>    -4.6873     6.2223   197.8135 </r>
       <r>    -4.4652     2.7128   198.4160 </r>
       <r>    -4.2431     8.2283   200.2435 </r>
       <r>    -4.0210    10.6889   202.6174 </r>
       <r>    -3.7989    18.7338   206.7780 </r>
       <r>    -3.5768    20.1836   211.2607 </r>
       <r>    -3.3547    23.1235   216.3963 </r>
       <r>    -3.1326    23.1101   221.5289 </r>
       <r>    -2.9105    17.4054   225.3945 </r>
       <r>    -2.6884    19.9757   229.8310 </r>
       <r>    -2.4663    13.2997   232.7847 </r>
       <r>    -2.2442     5.1993   233.9395 </r>
       <r>    -2.0221     0.2722   233.9999 </r>
       <r>    -1.8000     0.0003   234.0000 </r>
       <r>    -1.5780     0.0000   234.0000 </r>
       <r>    -1.3559     0.0000   234.0000 </r>
       <r>    -1.1338     0.0000   234.0000 </r>
       <r>    -0.9117     0.0000   234.0000 </r>
       <r>    -0.6896     0.0000   234.0000 </r>
       <r>    -0.4675     0.0213   234.0047 </r>
       <r>    -0.2454     0.6004   234.1381 </r>
       <r>    -0.0233     2.8190   234.7642 </r>
       <r>     0.1988     6.9860   236.3157 </r>
       <r>     0.4209     9.0518   238.3260 </r>
       <r>     0.6430    11.8950   240.9678 </r>
       <r>     0.8651    17.0389   244.7521 </r>
       <r>     1.0872    21.3440   249.4924 </r>
       <r>     1.3093    27.3276   255.5617 </r>
       <r>     1.5314    25.7937   261.2903 </r>
       <r>     1.7534    25.5435   266.9634 </r>
       <r>     1.9755    30.9358   273.8340 </r>
       <r>     2.1976    32.5084   281.0539 </r>
       <r>     2.4197    34.0425   288.6145 </r>
       <r>     2.6418    41.5310   297.8383 </r>
       <r>     2.8639    48.2102   308.5454 </r>
       <r>     3.0860    54.8351   320.7239 </r>
       <r>     3.3081    60.7284   334.2113 </r>
       <r>     3.5302    63.4756   348.3088 </r>
       <r>     3.7523    61.8789   362.0517 </r>
       <r>     3.9744    60.2609   375.4353 </r>
       <r>     4.1965    50.4421   386.6381 </r>
       <r>     4.4186    39.7883   395.4748 </r>
       <r>     4.6407    30.6633   402.2849 </r>
       <r>     4.8627    26.5479   408.1810 </r>
       <r>     5.0848    28.6554   414.5452 </r>
       <r>     5.3069    18.6226   418.6812 </r>
       <r>     5.5290    17.6892   422.6098 </r>
       <r>     5.7511    11.4044   425.1426 </r>
       <r>     5.9732     9.4531   427.2421 </r>
       <r>     6.1953    15.8888   430.7709 </r>
       <r>     6.4174    16.6572   434.4704 </r>
       <r>     6.6395    17.2303   438.2971 </r>
       <r>     6.8616    20.6573   442.8850 </r>
       <r>     7.0837    15.7571   446.3845 </r>
       <r>     7.3058    18.3304   450.4555 </r>
       <r>     7.5279    20.9863   455.1165 </r>
       <r>     7.7500    23.4115   460.3160 </r>
       <r>     7.9721    25.2725   465.9289 </r>
       <r>     8.1941    18.7509   470.0933 </r>
       <r>     8.4162    19.9174   474.5168 </r>
       <r>     8.6383    24.8718   480.0407 </r>
       <r>     8.8604    28.2328   486.3110 </r>
       <r>     9.0825    37.1297   494.5573 </r>
       <r>     9.3046    43.2021   504.1522 </r>
       <r>     9.5267    45.4727   514.2513 </r>
       <r>     9.7488    49.6188   525.2713 </r>
       <r>     9.9709    51.9269   536.8040 </r>
       <r>    10.1930    54.7297   548.9591 </r>
       <r>    10.4151    50.0031   560.0644 </r>
       <r>    10.6372    45.2402   570.1119 </r>
       <r>    10.8593    21.6083   574.9110 </r>
       <r>    11.0814     4.8632   575.9911 </r>
       <r>    11.3035     0.0401   576.0000 </r>
       <r>    11.5255     0.0000   576.0000 </r>
       <r>    11.7476     0.0000   576.0000 </r>
       <r>    11.9697     0.0000   576.0000 </r>
       <r>    12.1918     0.0000   576.0000 </r>
       <r>    12.4139     0.0000   576.0000 </r>
       <r>    12.6360     0.0000   576.0000 </r>
       <r>    12.8581     0.0000   576.0000 </r>
       <r>    13.0802     0.0000   576.0000 </r>
       <r>    13.3023     0.0000   576.0000 </r>
       <r>    13.5244     0.0000   576.0000 </r>
       <r>    13.7465     0.0000   576.0000 </r>
       <r>    13.9686     0.0000   576.0000 </r>
      </set>
     </set>
    </array>
   </total>
  </dos>
 </calculation>
 <structure name="finalpos" >
  <crystal>
   <varray name="basis" >
    <v>       8.85650283       0.02748726       0.04039172 </v>
    <v>       0.02769145       8.87538281      -0.01330340 </v>
    <v>       0.04034776      -0.01319101       8.86940841 </v>
   </varray>
   <i name="volume">    697.15574540 </i>
   <varray name="rec_basis" >
    <v>       0.11291483      -0.00035307      -0.00051419 </v>
    <v>      -0.00035046       0.11267254       0.00016917 </v>
    <v>      -0.00051475       0.00017061       0.11274969 </v>
   </varray>
  </crystal>
  <varray name="positions" >
   <v>       0.00814126      -0.00709202      -0.00444321 </v>
   <v>       0.25183724      -0.00552779       0.25964118 </v>
   <v>       0.25093638       0.50735978       0.24729835 </v>
   <v>       0.49711726       0.48796830      -0.00403927 </v>
   <v>       0.49076856       0.24396599       0.75256892 </v>
   <v>       0.00141158       0.49777395       0.51102931 </v>
   <v>       0.50209024       0.74943017       0.74645127 </v>
   <v>      -0.00908755       0.23356667       0.26813904 </v>
   <v>       0.76952232       0.74652171      -0.00801586 </v>
   <v>       0.02522489       0.24173782       0.74413026 </v>
   <v>       0.76355088       0.26559503       0.48503666 </v>
   <v>      -0.00330157       0.73667502       0.76289970 </v>
   <v>       0.25336887       0.50782554       0.75551445 </v>
   <v>       0.24428011       0.24925095      -0.00079553 </v>
   <v>       0.49827718       0.25138417       0.24596631 </v>
   <v>       0.74916590      -0.00033925       0.25218608 </v>
   <v>       0.75684308       0.25176839      -0.01249769 </v>
   <v>       0.26279716       0.75530771       0.00091626 </v>
   <v>       0.25097730       0.25256969       0.50262361 </v>
   <v>       0.24653227       0.74812113       0.50549425 </v>
   <v>       0.24893772       0.24692789       0.25194838 </v>
   <v>       0.25758323       0.00317447       0.00265562 </v>
   <v>       0.00035007       0.25302515       0.00761741 </v>
   <v>       0.74816164       0.24987239       0.24088434 </v>
   <v>       0.75870772      -0.00021764       0.00306890 </v>
   <v>       0.49586596      -0.00264846       0.23287303 </v>
   <v>       0.00006693       0.49967542       0.24641641 </v>
   <v>       0.50768923       0.75674972       0.00052195 </v>
   <v>      -0.02567096       0.00325601       0.75274441 </v>
   <v>       0.74571832       0.24478121       0.74208269 </v>
   <v>       0.74394164      -0.00069519       0.50864278 </v>
   <v>       0.50285677       0.24556503       0.49898025 </v>
   <v>       0.48736795       0.00194400       0.73447221 </v>
   <v>       0.00403487      -0.00202524       0.25003931 </v>
   <v>       0.50156552       0.25407120      -0.00589653 </v>
   <v>       0.25243207       0.75107159       0.25230221 </v>
   <v>       0.24951427       0.50322700       0.00592997 </v>
   <v>       0.00960550       0.75667270       0.00446776 </v>
   <v>       0.74932926       0.74687056       0.24581741 </v>
   <v>       0.75144724       0.50443697      -0.00147126 </v>
   <v>       0.50030010       0.50383993       0.24867652 </v>
   <v>       0.26030270       0.25079966       0.75064096 </v>
   <v>       0.25116334      -0.00040802       0.50264117 </v>
   <v>      -0.00305760       0.25424328       0.50923660 </v>
   <v>       0.24935714       0.75873356       0.75357871 </v>
   <v>       0.24761598       0.49985689       0.49608969 </v>
   <v>      -0.00566949       0.74914727       0.50477135 </v>
   <v>      -0.00162159       0.49224718       0.75135292 </v>
   <v>       0.74415600       0.74913704       0.74866642 </v>
   <v>       0.75304707       0.50111989       0.49854098 </v>
   <v>       0.49791391       0.74699600       0.50865493 </v>
   <v>       0.49930215       0.50076726       0.75078444 </v>
   <v>       0.51236072       0.01586735      -0.01867239 </v>
   <v>       0.00311410       0.51883204      -0.01160929 </v>
   <v>       0.50122246       0.74838457       0.26541839 </v>
   <v>       0.22740019       0.00128218       0.74804410 </v>
   <v>       0.49021404      -0.01728193       0.48457682 </v>
   <v>       0.72725766      -0.01844656       0.76942334 </v>
   <v>       0.00281270       0.75895833       0.25089212 </v>
   <v>       0.75147135       0.49951519       0.24957269 </v>
   <v>       0.00353425       0.00446875       0.50640153 </v>
   <v>       0.49626661       0.50534564       0.50173209 </v>
   <v>       0.74284822       0.50628043       0.74939901 </v>
   <v>       0.74873035       0.74071701       0.49698621 </v>
  </varray>
 </structure>
</modeling>
