  64  64   0   0
  0.1154088E+02  0.9039738E-09  0.9060331E-09  0.9018348E-09  0.5000000E-15
  1.000000000000000E-004
  CAR 
 HECN                                    
     15.45576810    -50.20327922  301      8.58524375      1.00000000
    -50.203  0.0000E+00  0.0000E+00
    -49.984  0.0000E+00  0.0000E+00
    -49.766  0.0000E+00  0.0000E+00
    -49.547  0.0000E+00  0.0000E+00
    -49.328  0.0000E+00  0.0000E+00
    -49.109  0.0000E+00  0.0000E+00
    -48.890  0.0000E+00  0.0000E+00
    -48.671  0.0000E+00  0.0000E+00
    -48.452  0.0000E+00  0.0000E+00
    -48.234  0.0000E+00  0.0000E+00
    -48.015  0.0000E+00  0.0000E+00
    -47.796  0.1522E-16  0.3331E-17
    -47.577  0.2251E-07  0.4928E-08
    -47.358  0.3749E-02  0.8205E-03
    -47.139  0.2922E+00  0.6478E-01
    -46.920  0.2409E+00  0.1175E+00
    -46.701  0.1141E-01  0.1200E+00
    -46.483  0.8916E-06  0.1200E+00
    -46.264  0.8055E-14  0.1200E+00
    -46.045  0.0000E+00  0.1200E+00
    -45.826  0.0000E+00  0.1200E+00
    -45.607  0.0000E+00  0.1200E+00
    -45.388  0.0000E+00  0.1200E+00
    -45.169  0.0000E+00  0.1200E+00
    -44.951  0.0000E+00  0.1200E+00
    -44.732  0.0000E+00  0.1200E+00
    -44.513  0.0000E+00  0.1200E+00
    -44.294  0.0000E+00  0.1200E+00
    -44.075  0.0000E+00  0.1200E+00
    -43.856  0.0000E+00  0.1200E+00
    -43.637  0.0000E+00  0.1200E+00
    -43.419  0.0000E+00  0.1200E+00
    -43.200  0.0000E+00  0.1200E+00
    -42.981  0.0000E+00  0.1200E+00
    -42.762  0.0000E+00  0.1200E+00
    -42.543  0.0000E+00  0.1200E+00
    -42.324  0.0000E+00  0.1200E+00
    -42.105  0.0000E+00  0.1200E+00
    -41.886  0.0000E+00  0.1200E+00
    -41.668  0.0000E+00  0.1200E+00
    -41.449  0.0000E+00  0.1200E+00
    -41.230  0.1079E-11  0.1200E+00
    -41.011  0.1531E-04  0.1200E+00
    -40.792  0.2846E-01  0.1262E+00
    -40.573  0.8217E-01  0.1442E+00
    -40.354  0.1669E+00  0.1808E+00
    -40.136  0.2911E+00  0.2445E+00
    -39.917  0.7091E-01  0.2600E+00
    -39.698  0.3724E-04  0.2600E+00
    -39.479  0.3576E-11  0.2600E+00
    -39.260  0.0000E+00  0.2600E+00
    -39.041  0.0000E+00  0.2600E+00
    -38.822  0.0000E+00  0.2600E+00
    -38.604  0.0000E+00  0.2600E+00
    -38.385  0.0000E+00  0.2600E+00
    -38.166  0.0000E+00  0.2600E+00
    -37.947  0.0000E+00  0.2600E+00
    -37.728  0.0000E+00  0.2600E+00
    -37.509  0.0000E+00  0.2600E+00
    -37.290  0.0000E+00  0.2600E+00
    -37.071  0.0000E+00  0.2600E+00
    -36.853  0.0000E+00  0.2600E+00
    -36.634  0.0000E+00  0.2600E+00
    -36.415  0.0000E+00  0.2600E+00
    -36.196  0.0000E+00  0.2600E+00
    -35.977  0.0000E+00  0.2600E+00
    -35.758  0.0000E+00  0.2600E+00
    -35.539  0.0000E+00  0.2600E+00
    -35.321  0.0000E+00  0.2600E+00
    -35.102  0.0000E+00  0.2600E+00
    -34.883  0.0000E+00  0.2600E+00
    -34.664  0.0000E+00  0.2600E+00
    -34.445  0.0000E+00  0.2600E+00
    -34.226  0.0000E+00  0.2600E+00
    -34.007  0.0000E+00  0.2600E+00
    -33.789  0.0000E+00  0.2600E+00
    -33.570  0.0000E+00  0.2600E+00
    -33.351  0.0000E+00  0.2600E+00
    -33.132  0.0000E+00  0.2600E+00
    -32.913  0.0000E+00  0.2600E+00
    -32.694  0.0000E+00  0.2600E+00
    -32.475  0.0000E+00  0.2600E+00
    -32.256  0.0000E+00  0.2600E+00
    -32.038  0.0000E+00  0.2600E+00
    -31.819  0.0000E+00  0.2600E+00
    -31.600  0.0000E+00  0.2600E+00
    -31.381  0.0000E+00  0.2600E+00
    -31.162  0.0000E+00  0.2600E+00
    -30.943  0.0000E+00  0.2600E+00
    -30.724  0.0000E+00  0.2600E+00
    -30.506  0.0000E+00  0.2600E+00
    -30.287  0.0000E+00  0.2600E+00
    -30.068  0.0000E+00  0.2600E+00
    -29.849  0.0000E+00  0.2600E+00
    -29.630  0.0000E+00  0.2600E+00
    -29.411  0.0000E+00  0.2600E+00
    -29.192  0.0000E+00  0.2600E+00
    -28.974  0.0000E+00  0.2600E+00
    -28.755  0.0000E+00  0.2600E+00
    -28.536  0.0000E+00  0.2600E+00
    -28.317  0.0000E+00  0.2600E+00
    -28.098  0.0000E+00  0.2600E+00
    -27.879  0.5073E-17  0.2600E+00
    -27.660  0.8189E-08  0.2600E+00
    -27.441  0.1800E-02  0.2604E+00
    -27.223  0.2329E+00  0.3114E+00
    -27.004  0.5149E+00  0.4241E+00
    -26.785  0.3975E+00  0.5111E+00
    -26.566  0.4058E+00  0.5999E+00
    -26.347  0.9190E-01  0.6200E+00
    -26.128  0.7048E-04  0.6200E+00
    -25.909  0.1076E-10  0.6200E+00
    -25.691  0.0000E+00  0.6200E+00
    -25.472  0.0000E+00  0.6200E+00
    -25.253  0.0000E+00  0.6200E+00
    -25.034  0.0000E+00  0.6200E+00
    -24.815  0.0000E+00  0.6200E+00
    -24.596  0.0000E+00  0.6200E+00
    -24.377  0.0000E+00  0.6200E+00
    -24.159  0.0000E+00  0.6200E+00
    -23.940  0.9063E-09  0.6200E+00
    -23.721  0.7051E-03  0.6202E+00
    -23.502  0.1789E+00  0.6593E+00
    -23.283  0.6862E+00  0.8095E+00
    -23.064  0.6604E+00  0.9540E+00
    -22.845  0.1233E+00  0.9810E+00
    -22.626  0.2006E+00  0.1025E+01
    -22.408  0.5243E+00  0.1140E+01
    -22.189  0.1625E+00  0.1175E+01
    -21.970  0.5838E+00  0.1303E+01
    -21.751  0.2027E+00  0.1347E+01
    -21.532  0.2321E+00  0.1398E+01
    -21.313  0.8273E-02  0.1400E+01
    -21.094  0.1119E-06  0.1400E+01
    -20.876  0.1680E-15  0.1400E+01
    -20.657  0.0000E+00  0.1400E+01
    -20.438  0.0000E+00  0.1400E+01
    -20.219  0.0000E+00  0.1400E+01
    -20.000  0.0000E+00  0.1400E+01
    -19.781  0.0000E+00  0.1400E+01
    -19.562  0.1779E-11  0.1400E+01
    -19.344  0.2210E-04  0.1400E+01
    -19.125  0.5353E-01  0.1412E+01
    -18.906  0.2650E+00  0.1470E+01
    -18.687  0.5299E+00  0.1586E+01
    -18.468  0.6521E+00  0.1728E+01
    -18.249  0.3727E+00  0.1810E+01
    -18.030  0.4562E-01  0.1820E+01
    -17.811  0.6965E-04  0.1820E+01
    -17.593  0.1714E-10  0.1820E+01
    -17.374  0.0000E+00  0.1820E+01
    -17.155  0.0000E+00  0.1820E+01
    -16.936  0.0000E+00  0.1820E+01
    -16.717  0.0000E+00  0.1820E+01
    -16.498  0.0000E+00  0.1820E+01
    -16.279  0.0000E+00  0.1820E+01
    -16.061  0.0000E+00  0.1820E+01
    -15.842  0.0000E+00  0.1820E+01
    -15.623  0.0000E+00  0.1820E+01
    -15.404  0.0000E+00  0.1820E+01
    -15.185  0.0000E+00  0.1820E+01
    -14.966  0.0000E+00  0.1820E+01
    -14.747  0.0000E+00  0.1820E+01
    -14.529  0.0000E+00  0.1820E+01
    -14.310  0.0000E+00  0.1820E+01
    -14.091  0.0000E+00  0.1820E+01
    -13.872  0.0000E+00  0.1820E+01
    -13.653  0.0000E+00  0.1820E+01
    -13.434  0.0000E+00  0.1820E+01
    -13.215  0.0000E+00  0.1820E+01
    -12.996  0.0000E+00  0.1820E+01
    -12.778  0.0000E+00  0.1820E+01
    -12.559  0.0000E+00  0.1820E+01
    -12.340  0.0000E+00  0.1820E+01
    -12.121  0.0000E+00  0.1820E+01
    -11.902  0.0000E+00  0.1820E+01
    -11.683  0.0000E+00  0.1820E+01
    -11.464  0.0000E+00  0.1820E+01
    -11.246  0.0000E+00  0.1820E+01
    -11.027  0.0000E+00  0.1820E+01
    -10.808  0.0000E+00  0.1820E+01
    -10.589  0.0000E+00  0.1820E+01
    -10.370  0.0000E+00  0.1820E+01
    -10.151  0.0000E+00  0.1820E+01
     -9.932  0.0000E+00  0.1820E+01
     -9.714  0.0000E+00  0.1820E+01
     -9.495  0.0000E+00  0.1820E+01
     -9.276  0.0000E+00  0.1820E+01
     -9.057  0.0000E+00  0.1820E+01
     -8.838  0.0000E+00  0.1820E+01
     -8.619  0.0000E+00  0.1820E+01
     -8.400  0.5279E-16  0.1820E+01
     -8.181  0.1417E-07  0.1820E+01
     -7.963  0.5545E-03  0.1820E+01
     -7.744  0.3221E-01  0.1827E+01
     -7.525  0.6000E-01  0.1840E+01
     -7.306  0.1217E+00  0.1867E+01
     -7.087  0.1196E+00  0.1893E+01
     -6.868  0.1295E+00  0.1921E+01
     -6.649  0.1325E+00  0.1950E+01
     -6.431  0.2548E+00  0.2006E+01
     -6.212  0.2306E+00  0.2057E+01
     -5.993  0.1040E+00  0.2079E+01
     -5.774  0.2387E-02  0.2080E+01
     -5.555  0.3392E-07  0.2080E+01
     -5.336  0.6162E-16  0.2080E+01
     -5.117  0.0000E+00  0.2080E+01
     -4.899  0.0000E+00  0.2080E+01
     -4.680  0.0000E+00  0.2080E+01
     -4.461  0.3856E-14  0.2080E+01
     -4.242  0.2049E-06  0.2080E+01
     -4.023  0.1624E-02  0.2080E+01
     -3.804  0.4097E-01  0.2089E+01
     -3.585  0.5156E-01  0.2101E+01
     -3.366  0.8708E-01  0.2120E+01
     -3.148  0.1357E+00  0.2149E+01
     -2.929  0.2482E+00  0.2204E+01
     -2.710  0.2631E+00  0.2261E+01
     -2.491  0.2766E+00  0.2322E+01
     -2.272  0.2190E+00  0.2370E+01
     -2.053  0.1855E+00  0.2410E+01
     -1.834  0.1215E+00  0.2437E+01
     -1.616  0.8275E-01  0.2455E+01
     -1.397  0.2144E-01  0.2460E+01
     -1.178  0.1216E-02  0.2460E+01
     -0.959  0.1895E-06  0.2460E+01
     -0.740  0.3600E-14  0.2460E+01
     -0.521  0.0000E+00  0.2460E+01
     -0.302  0.0000E+00  0.2460E+01
     -0.084  0.0000E+00  0.2460E+01
      0.135  0.1451E-10  0.2460E+01
      0.354  0.1490E-04  0.2460E+01
      0.573  0.4649E-02  0.2461E+01
      0.792  0.2298E-01  0.2466E+01
      1.011  0.9040E-01  0.2486E+01
      1.230  0.9636E-01  0.2507E+01
      1.449  0.1469E+00  0.2539E+01
      1.667  0.1735E+00  0.2577E+01
      1.886  0.2296E+00  0.2627E+01
      2.105  0.2811E+00  0.2689E+01
      2.324  0.2617E+00  0.2746E+01
      2.543  0.2928E+00  0.2810E+01
      2.762  0.3415E+00  0.2885E+01
      2.981  0.3725E+00  0.2966E+01
      3.199  0.4072E+00  0.3056E+01
      3.418  0.4750E+00  0.3160E+01
      3.637  0.5296E+00  0.3275E+01
      3.856  0.6421E+00  0.3416E+01
      4.075  0.6760E+00  0.3564E+01
      4.294  0.6888E+00  0.3715E+01
      4.513  0.6265E+00  0.3852E+01
      4.731  0.5445E+00  0.3971E+01
      4.950  0.4429E+00  0.4068E+01
      5.169  0.3570E+00  0.4146E+01
      5.388  0.2868E+00  0.4209E+01
      5.607  0.2587E+00  0.4265E+01
      5.826  0.1890E+00  0.4307E+01
      6.045  0.1737E+00  0.4345E+01
      6.264  0.1214E+00  0.4371E+01
      6.482  0.7326E-01  0.4387E+01
      6.701  0.1478E+00  0.4420E+01
      6.920  0.1729E+00  0.4458E+01
      7.139  0.1457E+00  0.4489E+01
      7.358  0.1563E+00  0.4524E+01
      7.577  0.1725E+00  0.4561E+01
      7.796  0.1694E+00  0.4599E+01
      8.014  0.1815E+00  0.4638E+01
      8.233  0.1922E+00  0.4680E+01
      8.452  0.1947E+00  0.4723E+01
      8.671  0.1959E+00  0.4766E+01
      8.890  0.2170E+00  0.4813E+01
      9.109  0.2394E+00  0.4866E+01
      9.328  0.2997E+00  0.4931E+01
      9.546  0.3368E+00  0.5005E+01
      9.765  0.3548E+00  0.5083E+01
      9.984  0.3749E+00  0.5165E+01
     10.203  0.3971E+00  0.5252E+01
     10.422  0.4037E+00  0.5340E+01
     10.641  0.4140E+00  0.5431E+01
     10.860  0.4327E+00  0.5525E+01
     11.078  0.4410E+00  0.5622E+01
     11.297  0.4499E+00  0.5720E+01
     11.516  0.4345E+00  0.5815E+01
     11.735  0.4546E+00  0.5915E+01
     11.954  0.4693E+00  0.6018E+01
     12.173  0.4086E+00  0.6107E+01
     12.392  0.1985E+00  0.6150E+01
     12.611  0.4309E-01  0.6160E+01
     12.829  0.3935E-03  0.6160E+01
     13.048  0.2708E-08  0.6160E+01
     13.267  0.3006E-17  0.6160E+01
     13.486  0.0000E+00  0.6160E+01
     13.705  0.0000E+00  0.6160E+01
     13.924  0.0000E+00  0.6160E+01
     14.143  0.0000E+00  0.6160E+01
     14.361  0.0000E+00  0.6160E+01
     14.580  0.0000E+00  0.6160E+01
     14.799  0.0000E+00  0.6160E+01
     15.018  0.0000E+00  0.6160E+01
     15.237  0.0000E+00  0.6160E+01
     15.456  0.0000E+00  0.6160E+01
