 vasp.6.4.3 19Mar24 (build Sep 18 2024 11:30:23) complex                        
  
 executed on             LinuxIFC date 2026.07.03  20:09:15
 running   28 mpi-ranks, on    1 nodes
 distrk:  each k-point on   28 cores,    1 groups
 distr:  one band on NCORE=   1 cores,   28 groups


--------------------------------------------------------------------------------------------------------


 INCAR:
   SYSTEM = HECN
   ISTART = 0
   ICHARG = 2
   PREC = Normal
   LREAL = .F.
   IBRION = 2
   ISIF = 3
   NSW = 100
   POTIM = 0.5
   EDIFFG = -0.01
   ENCUT = 400
   NELM = 60
   EDIFF = 1E-5
   LCHARG = .F.
   LWAVE = .F.
   ISMEAR = 0
   SIGMA = 0.1
   ALGO = Fast

 POTCAR:   PAW_PBE Zr_sv 07Sep2000                
 POTCAR:   PAW_PBE Mo 08Apr2002                   
 POTCAR:   PAW_PBE Hf_pv 06Sep2000                
 POTCAR:   PAW_PBE N 08Apr2002                    
 POTCAR:   PAW_PBE C 08Apr2002                    
 POTCAR:   PAW_PBE Ta_pv 07Sep2000                
 POTCAR:   PAW_PBE Nb_sv 17Jan2003                
 -----------------------------------------------------------------------------
|                                                                             |
|           W    W    AA    RRRRR   N    N  II  N    N   GGGG   !!!           |
|           W    W   A  A   R    R  NN   N  II  NN   N  G    G  !!!           |
|           W    W  A    A  R    R  N N  N  II  N N  N  G       !!!           |
|           W WW W  AAAAAA  RRRRR   N  N N  II  N  N N  G  GGG   !            |
|           WW  WW  A    A  R   R   N   NN  II  N   NN  G    G                |
|           W    W  A    A  R    R  N    N  II  N    N   GGGG   !!!           |
|                                                                             |
|     For optimal performance we recommend to set                             |
|       NCORE = 2 up to number-of-cores-per-socket                            |
|     NCORE specifies how many cores store one orbital (NPAR=cpu/NCORE).      |
|     This setting can greatly improve the performance of VASP for DFT.       |
|     The default, NCORE=1 might be grossly inefficient on modern             |
|     multi-core architectures or massively parallel machines. Do your        |
|     own testing! More info at https://www.vasp.at/wiki/index.php/NCORE      |
|     Unfortunately you need to use the default for GW and RPA                |
|     calculations (for HF NCORE is supported but not extensively tested      |
|     yet).                                                                   |
|                                                                             |
 -----------------------------------------------------------------------------

 POTCAR:   PAW_PBE Zr_sv 07Sep2000                
   VRHFIN =Zr: 4s4p5s4d                                                                             
   LEXCH  = PE                                                                                      
   EATOM  =  1283.3934 eV,   94.3268 Ry                                                             
                                                                                                    
   TITEL  = PAW_PBE Zr_sv 07Sep2000                                                                 
   LULTRA =        F    use ultrasoft PP ?                                                          
   IUNSCR =        1    unscreen: 0-lin 1-nonlin 2-no                                               
   RPACOR =    2.200    partial core radius                                                         
   POMASS =   91.224; ZVAL   =   12.000    mass and valenz                                          
   RCORE  =    2.500    outmost cutoff radius                                                       
   RWIGS  =    3.070; RWIGS  =    1.625    wigner-seitz radius (au A)                               
   ENMAX  =  229.839; ENMIN  =  172.379 eV                                                          
   RCLOC  =    2.213    cutoff for local pot                                                        
   LCOR   =        T    correct aug charges                                                         
   LPAW   =        T    paw PP                                                                      
   EAUG   =  357.078                                                                                
   DEXC   =     .000                                                                                
   RMAX   =    3.041    core radius for proj-oper                                                   
   RAUG   =    1.300    factor for augmentation sphere                                              
   RDEP   =    2.597    radius for radial grids                                                     
   QCUT   =   -4.110; QGAM   =    8.220    optimization parameters                                  
                                                                                                    
   Description                                                                                      
     l     E      TYP  RCUT    TYP  RCUT                                                            
     0   .000     23  2.500                                                                         
     0   .000     23  2.500                                                                         
     1   .000     23  2.500                                                                         
     1   .000     23  2.500                                                                         
     2   .000     23  2.500                                                                         
     2   .000     23  2.500                                                                         
     3   .000      7   .000                                                                         
  local pseudopotential read in
  partial core-charges read in
  atomic valenz-charges read in
  non local Contribution for L=           0  read in
    real space projection operators read in
  non local Contribution for L=           0  read in
    real space projection operators read in
  non local Contribution for L=           1  read in
    real space projection operators read in
  non local Contribution for L=           1  read in
    real space projection operators read in
  non local Contribution for L=           2  read in
    real space projection operators read in
  non local Contribution for L=           2  read in
    real space projection operators read in
    PAW grid and wavefunctions read in
 
   number of l-projection  operators is LMAX  =           6
   number of lm-projection operators is LMMAX =          18
 
 POTCAR:   PAW_PBE Mo 08Apr2002                   
   VRHFIN =Mo: 4p5s4d                                                                               
   LEXCH  = PE                                                                                      
   EATOM  =   217.5180 eV,   15.9871 Ry                                                             
                                                                                                    
   TITEL  = PAW_PBE Mo 08Apr2002                                                                    
   LULTRA =        F    use ultrasoft PP ?                                                          
   IUNSCR =        1    unscreen: 0-lin 1-nonlin 2-no                                               
   RPACOR =    2.200    partial core radius                                                         
   POMASS =   95.940; ZVAL   =    6.000    mass and valenz                                          
   RCORE  =    2.750    outmost cutoff radius                                                       
   RWIGS  =    2.750; RWIGS  =    1.455    wigner-seitz radius (au A)                               
   ENMAX  =  224.584; ENMIN  =  168.438 eV                                                          
   RCLOC  =    2.111    cutoff for local pot                                                        
   LCOR   =        T    correct aug charges                                                         
   LPAW   =        T    paw PP                                                                      
   EAUG   =  345.278                                                                                
   DEXC   =    -.088                                                                                
   RMAX   =    3.077    core radius for proj-oper                                                   
   RAUG   =    1.300    factor for augmentation sphere                                              
   RDEP   =    2.815    radius for radial grids                                                     
   QCUT   =   -4.063; QGAM   =    8.126    optimization parameters                                  
                                                                                                    
   Description                                                                                      
     l     E      TYP  RCUT    TYP  RCUT                                                            
     2   .000     23  2.500                                                                         
     2   .000     23  2.500                                                                         
     0   .000     23  2.600                                                                         
     0  1.000     23  2.600                                                                         
     1   .400     23  2.750                                                                         
     1  2.000     23  2.750                                                                         
     3   .000      7   .000                                                                         
  local pseudopotential read in
  partial core-charges read in
  atomic valenz-charges read in
  non local Contribution for L=           2  read in
    real space projection operators read in
  non local Contribution for L=           2  read in
    real space projection operators read in
  non local Contribution for L=           0  read in
    real space projection operators read in
  non local Contribution for L=           0  read in
    real space projection operators read in
  non local Contribution for L=           1  read in
    real space projection operators read in
  non local Contribution for L=           1  read in
    real space projection operators read in
    PAW grid and wavefunctions read in
 
   number of l-projection  operators is LMAX  =           6
   number of lm-projection operators is LMMAX =          18
 
 POTCAR:   PAW_PBE Hf_pv 06Sep2000                
   VRHFIN =Hf: 5p6s5d                                                                               
   LEXCH  = PE                                                                                      
   EATOM  =   859.6195 eV,   63.1803 Ry                                                             
                                                                                                    
   TITEL  = PAW_PBE Hf_pv 06Sep2000                                                                 
   LULTRA =        F    use ultrasoft PP ?                                                          
   IUNSCR =        1    unscreen: 0-lin 1-nonlin 2-no                                               
   RPACOR =    2.500    partial core radius                                                         
   POMASS =  178.490; ZVAL   =   10.000    mass and valenz                                          
   RCORE  =    2.600    outmost cutoff radius                                                       
   RWIGS  =    3.050; RWIGS  =    1.614    wigner-seitz radius (au A)                               
   ENMAX  =  220.342; ENMIN  =  165.256 eV                                                          
   RCLOC  =    2.212    cutoff for local pot                                                        
   LCOR   =        T    correct aug charges                                                         
   LPAW   =        T    paw PP                                                                      
   EAUG   =  380.878                                                                                
   DEXC   =    -.057                                                                                
   RMAX   =    3.106    core radius for proj-oper                                                   
   RAUG   =    1.300    factor for augmentation sphere                                              
   RDEP   =    2.681    radius for radial grids                                                     
   QCUT   =   -4.024; QGAM   =    8.049    optimization parameters                                  
                                                                                                    
   Description                                                                                      
     l     E      TYP  RCUT    TYP  RCUT                                                            
     1   .000     23  2.500                                                                         
     1   .000     23  2.500                                                                         
     2   .000     23  2.500                                                                         
     2   .000     23  2.500                                                                         
     0   .000     23  2.600                                                                         
     0   .000     23  2.600                                                                         
     3   .000      7   .000                                                                         
  local pseudopotential read in
  partial core-charges read in
  atomic valenz-charges read in
  non local Contribution for L=           1  read in
    real space projection operators read in
  non local Contribution for L=           1  read in
    real space projection operators read in
  non local Contribution for L=           2  read in
    real space projection operators read in
  non local Contribution for L=           2  read in
    real space projection operators read in
  non local Contribution for L=           0  read in
    real space projection operators read in
  non local Contribution for L=           0  read in
    real space projection operators read in
    PAW grid and wavefunctions read in
 
   number of l-projection  operators is LMAX  =           6
   number of lm-projection operators is LMMAX =          18
 
 POTCAR:   PAW_PBE N 08Apr2002                    
   VRHFIN =N: s2p3                                                                                  
   LEXCH  = PE                                                                                      
   EATOM  =   264.5486 eV,   19.4438 Ry                                                             
                                                                                                    
   TITEL  = PAW_PBE N 08Apr2002                                                                     
   LULTRA =        F    use ultrasoft PP ?                                                          
   IUNSCR =        0    unscreen: 0-lin 1-nonlin 2-no                                               
   RPACOR =     .000    partial core radius                                                         
   POMASS =   14.001; ZVAL   =    5.000    mass and valenz                                          
   RCORE  =    1.500    outmost cutoff radius                                                       
   RWIGS  =    1.400; RWIGS  =     .741    wigner-seitz radius (au A)                               
   ENMAX  =  400.000; ENMIN  =  300.000 eV                                                          
   ICORE  =        2    local potential                                                             
   LCOR   =        T    correct aug charges                                                         
   LPAW   =        T    paw PP                                                                      
   EAUG   =  627.112                                                                                
   DEXC   =     .000                                                                                
   RMAX   =    2.247    core radius for proj-oper                                                   
   RAUG   =    1.300    factor for augmentation sphere                                              
   RDEP   =    1.514    radius for radial grids                                                     
   QCUT   =   -5.562; QGAM   =   11.124    optimization parameters                                  
                                                                                                    
   Description                                                                                      
     l     E      TYP  RCUT    TYP  RCUT                                                            
     0   .000     23  1.200                                                                         
     0   .000     23  1.200                                                                         
     1   .000     23  1.500                                                                         
     1   .700     23  1.500                                                                         
     2   .000      7  1.500                                                                         
  local pseudopotential read in
  atomic valenz-charges read in
  non local Contribution for L=           0  read in
    real space projection operators read in
  non local Contribution for L=           0  read in
    real space projection operators read in
  non local Contribution for L=           1  read in
    real space projection operators read in
  non local Contribution for L=           1  read in
    real space projection operators read in
    PAW grid and wavefunctions read in
 
   number of l-projection  operators is LMAX  =           4
   number of lm-projection operators is LMMAX =           8
 
 POTCAR:   PAW_PBE C 08Apr2002                    
   VRHFIN =C: s2p2                                                                                  
   LEXCH  = PE                                                                                      
   EATOM  =   147.1560 eV,   10.8157 Ry                                                             
                                                                                                    
   TITEL  = PAW_PBE C 08Apr2002                                                                     
   LULTRA =        F    use ultrasoft PP ?                                                          
   IUNSCR =        0    unscreen: 0-lin 1-nonlin 2-no                                               
   RPACOR =     .000    partial core radius                                                         
   POMASS =   12.011; ZVAL   =    4.000    mass and valenz                                          
   RCORE  =    1.500    outmost cutoff radius                                                       
   RWIGS  =    1.630; RWIGS  =     .863    wigner-seitz radius (au A)                               
   ENMAX  =  400.000; ENMIN  =  300.000 eV                                                          
   ICORE  =        2    local potential                                                             
   LCOR   =        T    correct aug charges                                                         
   LPAW   =        T    paw PP                                                                      
   EAUG   =  644.873                                                                                
   DEXC   =     .000                                                                                
   RMAX   =    2.266    core radius for proj-oper                                                   
   RAUG   =    1.300    factor for augmentation sphere                                              
   RDEP   =    1.501    radius for radial grids                                                     
   RDEPT  =    1.300    core radius for aug-charge                                                  
   QCUT   =   -5.516; QGAM   =   11.032    optimization parameters                                  
                                                                                                    
   Description                                                                                      
     l     E      TYP  RCUT    TYP  RCUT                                                            
     0   .000     23  1.200                                                                         
     0   .000     23  1.200                                                                         
     1   .000     23  1.500                                                                         
     1  2.500     23  1.500                                                                         
     2   .000      7  1.500                                                                         
  local pseudopotential read in
  atomic valenz-charges read in
  non local Contribution for L=           0  read in
    real space projection operators read in
  non local Contribution for L=           0  read in
    real space projection operators read in
  non local Contribution for L=           1  read in
    real space projection operators read in
  non local Contribution for L=           1  read in
    real space projection operators read in
    PAW grid and wavefunctions read in
 
   number of l-projection  operators is LMAX  =           4
   number of lm-projection operators is LMMAX =           8
 
 POTCAR:   PAW_PBE Ta_pv 07Sep2000                
   VRHFIN =Ta:  5p6s5d                                                                              
   LEXCH  = PE                                                                                      
   EATOM  =  1045.8051 eV,   76.8645 Ry                                                             
                                                                                                    
   TITEL  = PAW_PBE Ta_pv 07Sep2000                                                                 
   LULTRA =        F    use ultrasoft PP ?                                                          
   IUNSCR =        1    unscreen: 0-lin 1-nonlin 2-no                                               
   RPACOR =    2.330    partial core radius                                                         
   POMASS =  180.948; ZVAL   =   11.000    mass and valenz                                          
   RCORE  =    2.500    outmost cutoff radius                                                       
   RWIGS  =    2.840; RWIGS  =    1.503    wigner-seitz radius (au A)                               
   ENMAX  =  223.675; ENMIN  =  167.756 eV                                                          
   RCLOC  =    2.205    cutoff for local pot                                                        
   LCOR   =        T    correct aug charges                                                         
   LPAW   =        T    paw PP                                                                      
   EAUG   =  377.421                                                                                
   DEXC   =    -.043                                                                                
   RMAX   =    3.083    core radius for proj-oper                                                   
   RAUG   =    1.300    factor for augmentation sphere                                              
   RDEP   =    2.526    radius for radial grids                                                     
   QCUT   =   -4.055; QGAM   =    8.109    optimization parameters                                  
                                                                                                    
   Description                                                                                      
     l     E      TYP  RCUT    TYP  RCUT                                                            
     1   .000     23  2.500                                                                         
     1   .100     23  2.500                                                                         
     2   .000     23  2.500                                                                         
     2   .000     23  2.500                                                                         
     0   .000     23  2.500                                                                         
     0   .000     23  2.500                                                                         
     3   .000      7   .000                                                                         
  local pseudopotential read in
  partial core-charges read in
  atomic valenz-charges read in
  non local Contribution for L=           1  read in
    real space projection operators read in
  non local Contribution for L=           1  read in
    real space projection operators read in
  non local Contribution for L=           2  read in
    real space projection operators read in
  non local Contribution for L=           2  read in
    real space projection operators read in
  non local Contribution for L=           0  read in
    real space projection operators read in
  non local Contribution for L=           0  read in
    real space projection operators read in
    PAW grid and wavefunctions read in
 
   number of l-projection  operators is LMAX  =           6
   number of lm-projection operators is LMMAX =          18
 
 POTCAR:   PAW_PBE Nb_sv 17Jan2003                
   VRHFIN =Nb: 4p5s4d                                                                               
   LEXCH  = PE                                                                                      
   EATOM  =  1555.1913 eV,  114.3033 Ry                                                             
                                                                                                    
   TITEL  = PAW_PBE Nb_sv 17Jan2003                                                                 
   LULTRA =        F    use ultrasoft PP ?                                                          
   IUNSCR =        1    unscreen: 0-lin 1-nonlin 2-no                                               
   RPACOR =    1.800    partial core radius                                                         
   POMASS =   92.910; ZVAL   =   13.000    mass and valenz                                          
   RCORE  =    2.200    outmost cutoff radius                                                       
   RWIGS  =    2.400; RWIGS  =    1.270    wigner-seitz radius (au A)                               
   ENMAX  =  293.235; ENMIN  =  219.927 eV                                                          
   RCLOC  =    1.411    cutoff for local pot                                                        
   LCOR   =        T    correct aug charges                                                         
   LPAW   =        T    paw PP                                                                      
   EAUG   =  455.659                                                                                
   DEXC   =     .000                                                                                
   RMAX   =    2.693    core radius for proj-oper                                                   
   RAUG   =    1.300    factor for augmentation sphere                                              
   RDEP   =    2.299    radius for radial grids                                                     
   QCUT   =   -4.642; QGAM   =    9.285    optimization parameters                                  
                                                                                                    
   Description                                                                                      
     l     E      TYP  RCUT    TYP  RCUT                                                            
     0   .000     23  2.200                                                                         
     0   .000     23  2.200                                                                         
     0   .000     23  2.200                                                                         
     0   .000     23  2.200                                                                         
     1   .000     23  2.200                                                                         
     1  1.000     23  2.200                                                                         
     2   .000     23  2.200                                                                         
     2   .000     23  2.200                                                                         
     3   .000      7   .000                                                                         
  local pseudopotential read in
  partial core-charges read in
  atomic valenz-charges read in
  non local Contribution for L=           0  read in
    real space projection operators read in
  non local Contribution for L=           0  read in
    real space projection operators read in
  non local Contribution for L=           1  read in
    real space projection operators read in
  non local Contribution for L=           1  read in
    real space projection operators read in
  non local Contribution for L=           2  read in
    real space projection operators read in
  non local Contribution for L=           2  read in
    real space projection operators read in
    PAW grid and wavefunctions read in
 
   number of l-projection  operators is LMAX  =           6
   number of lm-projection operators is LMMAX =          18
 
 -----------------------------------------------------------------------------
|                                                                             |
|               ----> ADVICE to this user running VASP <----                  |
|                                                                             |
|     You have a (more or less) 'large supercell' and for larger cells it     |
|     might be more efficient to use real-space projection operators.         |
|     Therefore, try LREAL= Auto in the INCAR file.                           |
|     Mind: If you want to do very accurate calculations, keep the            |
|     reciprocal projection scheme (i.e. LREAL=.FALSE.).                      |
|                                                                             |
 -----------------------------------------------------------------------------

 PAW_PBE Zr_sv 07Sep2000                :
 energy of atom  1       EATOM=-1283.3934
 kinetic energy error for atom=    0.0044 (will be added to EATOM!!)
 PAW_PBE Mo 08Apr2002                   :
 energy of atom  2       EATOM= -217.5180
 kinetic energy error for atom=    0.0025 (will be added to EATOM!!)
 PAW_PBE Hf_pv 06Sep2000                :
 energy of atom  3       EATOM= -859.6195
 kinetic energy error for atom=    0.0038 (will be added to EATOM!!)
 PAW_PBE N 08Apr2002                    :
 energy of atom  4       EATOM= -264.5486
 kinetic energy error for atom=    0.0736 (will be added to EATOM!!)
 PAW_PBE C 08Apr2002                    :
 energy of atom  5       EATOM= -147.1560
 kinetic energy error for atom=    0.0288 (will be added to EATOM!!)
 PAW_PBE Ta_pv 07Sep2000                :
 energy of atom  6       EATOM=-1045.8051
 kinetic energy error for atom=    0.0046 (will be added to EATOM!!)
 PAW_PBE Nb_sv 17Jan2003                :
 energy of atom  7       EATOM=-1555.1913
 kinetic energy error for atom=    0.0212 (will be added to EATOM!!)
 
 
 POSCAR: 42-ZrHfNbTaMo
  positions in direct lattice
  velocities in cartesian coordinates


 exchange-correlation table for PE
   RHO(1)=    0.500       N(1)  =     2000
   RHO(2)=  100.500       N(2)  =     4000
 


--------------------------------------------------------------------------------------------------------


 ion  position               nearest neighbor table
   1  0.996  0.999  1.000-  29 2.27  25 2.28  38 2.29  34 2.29  23 2.32  22 2.35  56 3.11  58 3.12
                            59 3.13   9 3.13  18 3.18  17 3.19  16 3.20   8 3.21  14 3.21   2 3.24
   2  0.250  0.000  0.251-  21 2.25  36 2.26  26 2.28  43 2.29  34 2.30  22 2.31  57 3.09  59 3.14
                            53 3.16   8 3.17  61 3.18  19 3.22  20 3.22   1 3.24  18 3.24  55 3.25
   3  0.249  0.500  0.251-  36 2.28  21 2.28  46 2.28  37 2.29  41 2.29  27 2.30  55 3.17   6 3.19
                            15 3.19  62 3.20   4 3.20  18 3.21  20 3.21  19 3.22  54 3.22  14 3.22
   4  0.501  0.502  0.999-  52 2.28  41 2.29  40 2.32  37 2.32  28 2.35  35 2.35  13 3.13  63 3.14
                            55 3.17  15 3.20  60 3.20   3 3.20  17 3.21   7 3.21  18 3.23   9 3.23
   5  0.501  0.246  0.743-  33 2.23  32 2.24  42 2.24  52 2.30  30 2.32  35 2.33  13 3.07  19 3.17
                            53 3.23  17 3.23  14 3.24  57 3.27   4 3.27  62 3.27  63 3.28  56 3.29
   6  0.998  0.500  0.500-  50 2.27  44 2.28  48 2.29  46 2.30  47 2.31  27 2.31  11 3.01  10 3.05
                            12 3.12  64 3.13  20 3.17  19 3.18   3 3.19  60 3.19   8 3.21  63 3.21
   7  0.498  0.754  0.750-  33 2.23  49 2.26  51 2.28  28 2.29  52 2.30  45 2.31  63 3.08  62 3.14
                            57 3.16  20 3.20  58 3.21  18 3.21   4 3.21  13 3.22  64 3.23  53 3.27
   8  0.987  0.231  0.268-  34 2.12  24 2.17  44 2.22  23 2.33  21 2.38  27 2.42  11 2.74  61 2.94
                            16 3.02   2 3.17  19 3.18   1 3.21   6 3.21  17 3.26  14 3.38   3 3.40
   9  0.770  0.737  0.997-  38 2.09  40 2.14  49 2.24  39 2.26  25 2.41  28 2.48  54 2.96  12 2.96
                            63 3.01  59 3.11   1 3.13  60 3.15  58 3.21   4 3.23  16 3.32   7 3.33
  10  0.019  0.276  0.751-  48 2.05  42 2.13  44 2.16  23 2.36  30 2.39  29 2.50  13 2.92  14 3.01
                            19 3.02   6 3.05  54 3.06  56 3.12  17 3.21  11 3.35   1 3.38  58 3.48
  11  0.770  0.259  0.479-  44 2.06  24 2.15  50 2.16  31 2.35  32 2.43  30 2.44   8 2.74   6 3.01
                            60 3.01  16 3.11  61 3.12  15 3.16  10 3.35   5 3.39  58 3.43  57 3.50
  12  0.991  0.733  0.754-  48 2.10  49 2.20  38 2.24  47 2.26  45 2.29  29 2.43   9 2.96  63 2.98
                            54 3.03  58 3.09   6 3.12  18 3.17  64 3.18  20 3.20  56 3.27   1 3.27
  13  0.263  0.488  0.748-  52 2.16  42 2.20  46 2.21  37 2.25  48 2.36  45 2.43  10 2.92  19 3.07
                             5 3.07  14 3.09  62 3.10   4 3.13   7 3.22  20 3.24  18 3.26  54 3.28
  14  0.244  0.252  0.995-  23 2.21  42 2.22  37 2.24  22 2.29  21 2.32  35 2.35  10 3.01  13 3.09
                            56 3.18  54 3.19   1 3.21   3 3.22  53 3.23   4 3.24   5 3.24   2 3.25
  15  0.504  0.256  0.253-  32 2.19  41 2.23  24 2.23  35 2.27  21 2.30  26 2.32  60 3.12  53 3.16
                            11 3.16   3 3.19   4 3.20  62 3.21  16 3.22  57 3.24  19 3.25   2 3.26
  16  0.749  0.999  0.254-  26 2.22  34 2.23  31 2.25  24 2.27  39 2.27  25 2.32   8 3.02  59 3.09
                            11 3.11  57 3.13  53 3.15  61 3.17  64 3.19   1 3.20  55 3.21  15 3.22
  17  0.757  0.258  0.992-  30 2.20  23 2.21  40 2.21  24 2.26  35 2.30  25 2.32  54 3.13   1 3.19
                             4 3.21  10 3.21  63 3.23  60 3.23   5 3.23  53 3.24   8 3.26  15 3.27
  18  0.242  0.748  0.997-  38 2.19  45 2.22  37 2.25  36 2.28  22 2.29  28 2.30  54 3.11  12 3.17
                             1 3.18  59 3.20   7 3.21   3 3.21   4 3.23   2 3.24  56 3.24  13 3.26
  19  0.246  0.251  0.505-  42 2.21  46 2.25  44 2.27  43 2.28  21 2.28  32 2.32  10 3.02  13 3.07
                            56 3.13  61 3.16   5 3.17   8 3.18   6 3.18   3 3.22   2 3.22  15 3.25
  20  0.244  0.749  0.504-  45 2.22  47 2.25  46 2.26  43 2.27  51 2.30  36 2.30  57 3.12  62 3.15
                            56 3.17   6 3.17  61 3.19   7 3.20  59 3.20  12 3.20   3 3.21   2 3.22
  21  0.250  0.248  0.252-   2 2.25   3 2.28  19 2.28  15 2.30  14 2.32   8 2.38
  22  0.256  1.000  0.995-  53 2.23  56 2.26  14 2.29  18 2.29   2 2.31   1 2.35
  23  0.001  0.254  0.011-  14 2.21  17 2.21  54 2.27   1 2.32   8 2.33  10 2.36
  24  0.750  0.249  0.242-  11 2.15   8 2.17  15 2.23  17 2.26  16 2.27  60 2.30
  25  0.743  0.002  0.997-  53 2.18  58 2.28   1 2.28  17 2.32  16 2.32   9 2.41
  26  0.503  0.001  0.249-  53 2.17  57 2.18  16 2.22   2 2.28  15 2.32  55 2.32
  27  0.995  0.497  0.244-  54 2.20  60 2.25   3 2.30   6 2.31   8 2.42
  28  0.497  0.761  0.004-  53 2.23  55 2.25   7 2.29  18 2.30   4 2.35   9 2.48
  29  0.999  0.001  0.749-  56 2.09  58 2.12  61 2.25   1 2.27  12 2.43  10 2.50
  30  0.758  0.238  0.749-  17 2.20  58 2.26   5 2.32  10 2.39  11 2.44
  31  0.744  0.002  0.504-  58 2.19  16 2.25  57 2.27  61 2.30  11 2.35  64 2.35
  32  0.502  0.241  0.495-  15 2.19   5 2.24  57 2.29  19 2.32  11 2.43
  33  0.506  0.000  0.750-   5 2.23   7 2.23  53 2.33  58 2.34  57 2.35  56 2.50
  34  0.996  0.998  0.254-   8 2.12  59 2.12  61 2.21  16 2.23   1 2.29   2 2.30
  35  0.504  0.242  0.001-  53 2.14  15 2.27  17 2.30   5 2.33  14 2.35   4 2.35
  36  0.251  0.751  0.249-   2 2.26  55 2.26   3 2.28  18 2.28  20 2.30  59 2.31
  37  0.244  0.499  0.997-  54 2.22  14 2.24  18 2.25  13 2.25   3 2.29   4 2.32
  38  0.000  0.746  0.002-   9 2.09  54 2.19  18 2.19  12 2.24  59 2.27   1 2.29
  39  0.747  0.748  0.246-  55 2.22  60 2.23   9 2.26  59 2.26  64 2.27  16 2.27
  40  0.757  0.502  1.000-   9 2.14  54 2.18  17 2.21  63 2.28  60 2.29   4 2.32
  41  0.503  0.502  0.253-  55 2.19  60 2.20  62 2.23  15 2.23   4 2.29   3 2.29
  42  0.253  0.245  0.749-  10 2.13  56 2.20  13 2.20  19 2.21  14 2.22   5 2.24
  43  0.250  1.000  0.505-  56 2.18  57 2.20  20 2.27  61 2.27  19 2.28   2 2.29
  44  0.995  0.249  0.514-  11 2.06  10 2.16   8 2.22  61 2.23  19 2.27   6 2.28
  45  0.243  0.755  0.751-  18 2.22  20 2.22  56 2.25  12 2.29   7 2.31  13 2.43
  46  0.253  0.500  0.504-  13 2.21  62 2.24  19 2.25  20 2.26   3 2.28   6 2.30
  47  0.995  0.755  0.504-  64 2.20  61 2.25  20 2.25  59 2.26  12 2.26   6 2.31
  48  0.003  0.501  0.754-  10 2.05  12 2.10  54 2.22   6 2.29  13 2.36  63 2.36
  49  0.749  0.752  0.750-  63 2.13  58 2.14  12 2.20   9 2.24   7 2.26  64 2.28
  50  0.747  0.496  0.501-  11 2.16  60 2.23  63 2.24  62 2.24  64 2.24   6 2.27
  51  0.499  0.751  0.497-  57 2.15  62 2.16  55 2.21   7 2.28  64 2.29  20 2.30
  52  0.502  0.500  0.746-  13 2.16  63 2.18  62 2.22   4 2.28   5 2.30   7 2.30
  53  0.502  0.007  0.008-  35 2.14  26 2.17  25 2.18  22 2.23  28 2.23  33 2.33  16 3.15   2 3.16
                            15 3.16   5 3.23  14 3.23  17 3.24  55 3.24   7 3.27  18 3.32  58 3.35
  54  0.999  0.505  0.999-  40 2.18  38 2.19  27 2.20  48 2.22  37 2.22  23 2.27   9 2.96  12 3.03
                            10 3.06  18 3.11  17 3.13  14 3.19   3 3.22  60 3.23  63 3.25  59 3.27
  55  0.501  0.744  0.252-  41 2.19  51 2.21  39 2.22  28 2.25  36 2.26  26 2.32  62 3.06  57 3.08
                            60 3.12   4 3.17   3 3.17  64 3.18  16 3.21  20 3.24  53 3.24   2 3.25
  56  0.230  0.004  0.746-  29 2.09  43 2.18  42 2.20  45 2.25  22 2.26  33 2.50  61 3.06   1 3.11
                            10 3.12  19 3.13  20 3.17  14 3.18  18 3.24  12 3.27   5 3.29  57 3.31
  57  0.494  0.988  0.490-  51 2.15  26 2.18  43 2.20  31 2.27  32 2.29  33 2.35  55 3.08   2 3.09
                            20 3.12  16 3.13   7 3.16  64 3.23  15 3.24   5 3.27  19 3.28  56 3.31
  58  0.765  0.988  0.745-  29 2.12  49 2.14  31 2.19  30 2.26  25 2.28  33 2.34  61 3.06  12 3.09
                             1 3.12  64 3.15   7 3.21   9 3.21  17 3.31   5 3.34  53 3.35  57 3.37
  59  0.996  0.764  0.253-  34 2.12  39 2.26  47 2.26  38 2.27  36 2.31  16 3.09   9 3.11   1 3.13
                             2 3.14  20 3.20  18 3.20   6 3.27  54 3.27   3 3.31
  60  0.746  0.502  0.253-  41 2.20  39 2.23  50 2.23  27 2.25  40 2.29  24 2.30  11 3.01  55 3.12
                            15 3.12   9 3.15   6 3.19   4 3.20  54 3.23  17 3.23
  61  0.999  0.003  0.499-  34 2.21  44 2.23  29 2.25  47 2.25  43 2.27  31 2.30   8 2.94  58 3.06
                            56 3.06  11 3.12  19 3.16  16 3.17   2 3.18  20 3.19
  62  0.500  0.513  0.499-  51 2.16  52 2.22  41 2.23  50 2.24  46 2.24  55 3.06  13 3.10   7 3.14
                            20 3.15   3 3.20  15 3.21   5 3.27  19 3.30
  63  0.742  0.517  0.748-  49 2.13  52 2.18  50 2.24  40 2.28  48 2.36  12 2.98   9 3.01   7 3.08
                             4 3.14   6 3.21  17 3.23  54 3.25   5 3.28
  64  0.752  0.743  0.497-  47 2.20  50 2.24  39 2.27  49 2.28  51 2.29  31 2.35   6 3.13  58 3.15
                            55 3.18  12 3.18  16 3.19   7 3.23  57 3.23
 
  LATTYP: Found a triclinic cell.
 ALAT       =     9.0183483021
 B/A-ratio  =     1.4118388175
 C/A-ratio  =     1.0046552417
 COS(alpha) =     0.0001148216
 COS(beta)  =     0.0014840014
 COS(gamma) =     0.7042374829
  
  Lattice vectors:
  
 A1 = (   0.0420280953,  -0.0145310510,   9.0182386632)
 A2 = (  -8.9977005761,  -0.0057341425,   9.0087036515)
 A3 = (   0.0031327258,  -9.0603302760,  -0.0011677652)


Analysis of symmetry for initial positions (statically):
=====================================================================
 Subroutine PRICEL returns:
 Original cell was already a primitive cell.
 

 Routine SETGRP: Setting up the symmetry group for a 
 triclinic supercell.


 Subroutine GETGRP returns: Found  1 space group operations
 (whereof  1 operations were pure point group operations)
 out of a pool of  2 trial point group operations.


The static configuration has the point symmetry C_1 .


Analysis of symmetry for dynamics (positions and initial velocities):
=====================================================================
 Subroutine PRICEL returns:
 Original cell was already a primitive cell.
 

 Routine SETGRP: Setting up the symmetry group for a 
 triclinic supercell.


 Subroutine GETGRP returns: Found  1 space group operations
 (whereof  1 operations were pure point group operations)
 out of a pool of  2 trial point group operations.


The dynamic configuration has the point symmetry C_1 .


 Subroutine INISYM returns: Found  1 space group operations
 (whereof  1 operations are pure point group operations),
 and found     1 'primitive' translations


----------------------------------------------------------------------------------------

                                     Primitive cell                                     

  volume of cell :     738.6164

  direct lattice vectors                    reciprocal lattice vectors
     9.039728671 -0.008796908  0.009535012     0.110623370  0.000038316 -0.000515481
    -0.003132726  9.060330276  0.001167765     0.000107219  0.110371267  0.000177341
     0.042028095 -0.014531051  9.018238663    -0.000116976 -0.000014332  0.110886920

  length of vectors
     9.039737980  9.060330893  9.018348302     0.110624578  0.110371461  0.110886982

  position of ions in fractional coordinates (direct lattice)
     0.996143884  0.998885719  0.999859402
     0.250183389  0.000442274  0.251397473
     0.249457168  0.499874907  0.250852901
     0.500641170  0.501900990  0.998996946
     0.501167914  0.245898374  0.743396232
     0.997700829  0.499935878  0.499722876
     0.498361549  0.754219055  0.749511958
     0.987423207  0.231072165  0.268242190
     0.769519604  0.737382551  0.996884720
     0.019481106  0.275929370  0.750962380
     0.769751272  0.258845056  0.479144194
     0.991223080  0.732796273  0.754159067
     0.262695793  0.487553059  0.748412053
     0.244259666  0.252268496  0.994878450
     0.503557307  0.256300590  0.253079164
     0.748614053  0.998916423  0.254291253
     0.757099011  0.257791452  0.992354479
     0.242198276  0.747677757  0.997086131
     0.245653742  0.251145860  0.504795513
     0.244301525  0.749388436  0.504426036
     0.249731893  0.248494229  0.252109201
     0.256329490  0.999932938  0.994812439
     0.000570654  0.254219497  0.011249519
     0.749677038  0.248854761  0.242273064
     0.743449336  0.002066899  0.996675739
     0.502597869  0.000809950  0.249027769
     0.994850144  0.496669953  0.243507166
     0.496586854  0.760795856  0.003555410
     0.999219586  0.000989627  0.748601181
     0.757544480  0.237551377  0.749042440
     0.744436721  0.001986117  0.504019243
     0.501773819  0.240818083  0.495406143
     0.506363328  0.000169669  0.750223967
     0.995837560  0.997622487  0.254164581
     0.503623566  0.242461825  0.001204183
     0.250996591  0.751086951  0.249474872
     0.244050538  0.499435661  0.997253439
     0.000009101  0.746020044  0.001508276
     0.746871401  0.748305298  0.245847092
     0.757181054  0.501828938  0.999541719
     0.502986107  0.502111113  0.252792137
     0.253353811  0.244971623  0.749425716
     0.250470218  0.999983659  0.505161862
     0.995030405  0.248564227  0.514027623
     0.243371911  0.755317529  0.751003812
     0.252513305  0.499649930  0.503698203
     0.995364178  0.754821099  0.504025254
     0.002563289  0.501242392  0.753612864
     0.748906263  0.752482222  0.749972415
     0.746765214  0.495552461  0.500730768
     0.498638311  0.750542423  0.496970201
     0.501737498  0.500036091  0.745801793
     0.502338748  0.006818995  0.008062528
     0.998737039  0.504806068  0.999324562
     0.501204913  0.744315923  0.252212347
     0.230283262  0.003690107  0.746271530
     0.493610128  0.987973463  0.490168776
     0.765065469  0.987862721  0.744911193
     0.996303453  0.763516187  0.253176237
     0.745995790  0.502198724  0.253160526
     0.999090081  0.002930784  0.499305027
     0.499919215  0.512655338  0.499488234
     0.742246056  0.516966465  0.747819630
     0.752371146  0.742645363  0.496926037

  ion indices of the primitive-cell ions
   primitive index   ion index
                 1           1
                 2           2
                 3           3
                 4           4
                 5           5
                 6           6
                 7           7
                 8           8
                 9           9
                10          10
                11          11
                12          12
                13          13
                14          14
                15          15
                16          16
                17          17
                18          18
                19          19
                20          20
                21          21
                22          22
                23          23
                24          24
                25          25
                26          26
                27          27
                28          28
                29          29
                30          30
                31          31
                32          32
                33          33
                34          34
                35          35
                36          36
                37          37
                38          38
                39          39
                40          40
                41          41
                42          42
                43          43
                44          44
                45          45
                46          46
                47          47
                48          48
                49          49
                50          50
                51          51
                52          52
                53          53
                54          54
                55          55
                56          56
                57          57
                58          58
                59          59
                60          60
                61          61
                62          62
                63          63
                64          64

----------------------------------------------------------------------------------------

 
 
 KPOINTS: HECN                                    

Automatic generation of k-mesh.
 Grid dimensions read from file:
 generate k-points for:    3    3    3

 Generating k-lattice:

  Cartesian coordinates                     Fractional coordinates (reciprocal lattice)
     0.036874457  0.000012772 -0.000171827     0.333333333  0.000000000 -0.000000000
     0.000035740  0.036790422  0.000059114     0.000000000  0.333333333 -0.000000000
    -0.000038992 -0.000004777  0.036962307    -0.000000000  0.000000000  0.333333333

  Length of vectors
     0.036874859  0.036790487  0.036962327

  Shift w.r.t. Gamma in fractional coordinates (k-lattice)
     0.000000000  0.000000000  0.000000000

 
 Subroutine IBZKPT returns following result:
 ===========================================
 
 Found     14 irreducible k-points:
 
 Following reciprocal coordinates:
            Coordinates               Weight
  0.000000  0.000000  0.000000      1.000000
  0.333333  0.000000  0.000000      2.000000
  0.000000  0.333333  0.000000      2.000000
  0.333333  0.333333 -0.000000      2.000000
 -0.333333  0.333333 -0.000000      2.000000
  0.000000 -0.000000  0.333333      2.000000
  0.333333 -0.000000  0.333333      2.000000
 -0.333333 -0.000000  0.333333      2.000000
  0.000000  0.333333  0.333333      2.000000
  0.333333  0.333333  0.333333      2.000000
 -0.333333  0.333333  0.333333      2.000000
  0.000000 -0.333333  0.333333      2.000000
  0.333333 -0.333333  0.333333      2.000000
 -0.333333 -0.333333  0.333333      2.000000
 
 Following cartesian coordinates:
            Coordinates               Weight
  0.000000  0.000000  0.000000      1.000000
  0.036874  0.000013 -0.000172      2.000000
  0.000036  0.036790  0.000059      2.000000
  0.036910  0.036803 -0.000113      2.000000
 -0.036839  0.036778  0.000231      2.000000
 -0.000039 -0.000005  0.036962      2.000000
  0.036835  0.000008  0.036790      2.000000
 -0.036913 -0.000018  0.037134      2.000000
 -0.000003  0.036786  0.037021      2.000000
  0.036871  0.036798  0.036850      2.000000
 -0.036878  0.036773  0.037193      2.000000
 -0.000075 -0.036795  0.036903      2.000000
  0.036800 -0.036782  0.036731      2.000000
 -0.036949 -0.036808  0.037075      2.000000
 


--------------------------------------------------------------------------------------------------------




 Dimension of arrays:
   k-points           NKPTS =     14   k-points in BZ     NKDIM =     14   number of bands    NBANDS=    308
   number of dos      NEDOS =    301   number of ions     NIONS =     64
   non local maximal  LDIM  =      6   non local SUM 2l+1 LMDIM =     18
   total plane-waves  NPLWV = 110592
   max r-space proj   IRMAX =      1   max aug-charges    IRDMAX=   9812
   dimension x,y,z NGX =    48 NGY =   48 NGZ =   48
   dimension x,y,z NGXF=    96 NGYF=   96 NGZF=   96
   support grid    NGXF=    96 NGYF=   96 NGZF=   96
   ions per type =               7   6   7  13  19   6   6
   NGX,Y,Z   is equivalent  to a cutoff of   8.83,  8.81,  8.85 a.u.
   NGXF,Y,Z  is equivalent  to a cutoff of  17.65, 17.61, 17.70 a.u.

 SYSTEM =  HECN                                    
 POSCAR =  42-ZrHfNbTaMo                           

 Startparameter for this run:
   NWRITE =      2    write-flag & timer
   PREC   = normal    normal or accurate (medium, high low for compatibility)
   ISTART =      0    job   : 0-new  1-cont  2-samecut
   ICHARG =      2    charge: 1-file 2-atom 10-const
   ISPIN  =      1    spin polarized calculation?
   LNONCOLLINEAR =      F non collinear calculations
   LSORBIT =      F    spin-orbit coupling
   INIWAV =      1    electr: 0-lowe 1-rand  2-diag
   LASPH  =      F    aspherical Exc in radial PAW
 Electronic Relaxation 1
   ENCUT  =  400.0 eV  29.40 Ry    5.42 a.u.  14.74 14.78 14.71*2*pi/ulx,y,z
   ENINI  =  400.0     initial cutoff
   ENAUG  =  644.9 eV  augmentation charge cutoff
   NELM   =     60;   NELMIN=  2; NELMDL= -5     # of ELM steps 
   EDIFF  = 0.1E-04   stopping-criterion for ELM
   LREAL  =      F    real-space projection
   NLSPLINE    = F    spline interpolate recip. space projectors
   LCOMPAT=      F    compatible to vasp.4.4
   GGA_COMPAT  = T    GGA compatible to vasp.4.4-vasp.4.6
   LMAXPAW     = -100 max onsite density
   LMAXMIX     =    2 max onsite mixed and CHGCAR
   VOSKOWN=      0    Vosko Wilk Nusair interpolation
   ROPT   =    0.00000   0.00000   0.00000   0.00000
   ROPT   =    0.00000   0.00000   0.00000
 Ionic relaxation
   EDIFFG = -.1E-01   stopping-criterion for IOM
   NSW    =    100    number of steps for IOM
   NBLOCK =      1;   KBLOCK =    100    inner block; outer block 
   IBRION =      2    ionic relax: 0-MD 1-quasi-New 2-CG
   NFREE  =      1    steps in history (QN), initial steepest desc. (CG)
   ISIF   =      3    stress and relaxation
   IWAVPR =     11    prediction:  0-non 1-charg 2-wave 3-comb
   ISYM   =      2    0-nonsym 1-usesym 2-fastsym
   LCORR  =      T    Harris-Foulkes like correction to forces

   POTIM  = 0.5000    time-step for ionic-motion
   TEIN   =    0.0    initial temperature
   TEBEG  =    0.0;   TEEND  =   0.0 temperature during run
   SMASS  =  -3.00    Nose mass-parameter (am)
   estimated Nose-frequenzy (Omega)   =  0.10E-29 period in steps = 0.13E+47 mass=  -0.187E-26a.u.
   SCALEE = 1.0000    scale energy and forces
   NPACO  =    256;   APACO  = 10.0  distance and # of slots for P.C.
   PSTRESS=    0.0 pullay stress

  Mass of Ions in am
   POMASS =  91.22 95.94178.49 14.00 12.01180.95 92.91
  Ionic Valenz
   ZVAL   =  12.00  6.00 10.00  5.00  4.00 11.00 13.00
  Atomic Wigner-Seitz radii
   RWIGS  =  -1.00 -1.00 -1.00 -1.00 -1.00 -1.00 -1.00
  virtual crystal weights 
   VCA    =   1.00  1.00  1.00  1.00  1.00  1.00  1.00
   NELECT =     475.0000    total number of electrons
   NUPDOWN=      -1.0000    fix difference up-down

 DOS related values:
   EMIN   =  10.00;   EMAX   =-10.00  energy-range for DOS
   EFERMI =   0.00;   METHOD = LEGACY      
   ISMEAR =     0;   SIGMA  =   0.10  broadening in eV -4-tet -1-fermi 0-gaus

 Electronic relaxation 2 (details)
   IALGO  =     68    algorithm
   LDIAG  =      T    sub-space diagonalisation (order eigenvalues)
   LSUBROT=      F    optimize rotation matrix (better conditioning)
   TURBO    =      0    0=normal 1=particle mesh
   IRESTART =      0    0=no restart 2=restart with 2 vectors
   NREBOOT  =      0    no. of reboots
   NMIN     =      0    reboot dimension
   EREF     =   0.00    reference energy to select bands
   IMIX   =      4    mixing-type and parameters
     AMIX     =   0.40;   BMIX     =  1.00
     AMIX_MAG =   1.60;   BMIX_MAG =  1.00
     AMIN     =   0.10
     WC   =   100.;   INIMIX=   1;  MIXPRE=   1;  MAXMIX= -45

 Intra band minimization:
   WEIMIN = 0.0010     energy-eigenvalue tresh-hold
   EBREAK =  0.81E-08  absolut break condition
   DEPER  =   0.30     relativ break condition  

   TIME   =   0.40     timestep for ELM

  volume/ion in A,a.u.               =      11.54        77.88
  Fermi-wavevector in a.u.,A,eV,Ry     =   1.413079  2.670332 27.168000  1.996792
  Thomas-Fermi vector in A             =   2.534761
 
 Write flags
   LWAVE        =      F    write WAVECAR
   LDOWNSAMPLE  =      F    k-point downsampling of WAVECAR
   LCHARG       =      F    write CHGCAR
   LVTOT        =      F    write LOCPOT, total local potential
   LVHAR        =      F    write LOCPOT, Hartree potential only
   WRT_POTENTIAL= false  ! write potential to hdf5 file
   LELF         =      F    write electronic localiz. function (ELF)
   LORBIT       =      0    0 simple, 1 ext, 2 COOP (PROOUT), +10 PAW based schemes


 Dipole corrections
   LMONO      =      F    monopole corrections only (constant potential shift)
   LDIPOL     =      F    correct potential (dipole corrections)
   IDIPOL     =      0    1-x, 2-y, 3-z, 4-all directions 
   EPSILON    =  1.0000000 bulk dielectric constant
   LVACPOTAV  =      F  vacuum potentials using an averaging scheme for the charge density
   VACPOTFLAT =  0.1000000 required flatness to determine vacuum potential
 Exchange correlation treatment:
   GGA     = PE    functional components
   XC_C    = 1    coefficients multiplying the functional components
   LIBXC   =     F    Libxc                    
   VOSKOWN =     0    Vosko Wilk Nusair interpolation
   LHFCALC =     F    Hartree Fock is set to
   LHFONE  =     F    Hartree Fock one center treatment
   AEXX    =    0.0000 exact exchange contribution

 Parameters of functionals:
   PE:
     No parameter
 
 Van der Waals corrections
   IVDW    =     0    specifies the selected vdW correction

 Linear response parameters
   LEPSILON=     F    determine dielectric tensor
   LRPA    =     F    only Hartree local field effects (RPA)
   LNABLA  =     F    use nabla operator in PAW spheres
   LVEL    =     F    velocity operator in full k-point grid
   CSHIFT  =0.1000    complex shift for real part using Kramers Kronig
   OMEGAMAX=  -1.0    maximum frequency
   DEG_THRESHOLD= 0.2000000E-02 threshold for treating states as degnerate
   RTIME   =   -0.100 relaxation time in fs
  (WPLASMAI=    0.000 imaginary part of plasma frequency in eV, 0.658/RTIME)
   DFIELD  = 0.0000000 0.0000000 0.0000000 field for delta impulse in time
 
  Optional k-point grid parameters
   LKPOINTS_OPT  =     F    use optional k-point grid
   KPOINTS_OPT_MODE=     1    mode for optional k-point grid
 
 Orbital magnetization related:
   ORBITALMAG=     F  switch on orbital magnetization
   LCHIMAG   =     F  perturbation theory with respect to B field
   DQ        =  0.001000  dq finite difference perturbation B field
   LLRAUG    =     F  two centre corrections for induced B field
   LBONE     =     F  B-component reconstruction in AE one-centre
   LVGVCALC  =     T  calculate vGv susceptibility
   LVGVAPPL  =     F  apply vGv susceptibility instead of pGv for G=0

 Random number generation:
   RANDOM_GENERATOR = DEFAULT
   PCG_SEED         = not used


--------------------------------------------------------------------------------------------------------


 conjugate gradient relaxation of ions
 charge density and potential will be updated during run
 non-spin polarized calculation
 RMM-DIIS sequential band-by-band and
  variant of blocked Davidson during initial phase
 perform sub-space diagonalisation
    before iterative eigenvector-optimisation
 modified Broyden-mixing scheme, WC =      100.0
 initial mixing is a Kerker type mixing with AMIX =  0.4000 and BMIX =      1.0000
 Hartree-type preconditioning will be used
 using additional bands           70
 reciprocal scheme for non local part
 use partial core corrections
 calculate Harris-corrections to forces 
   (improved forces if not selfconsistent)
 use gradient corrections 
 use of overlap-Matrix (Vanderbilt PP)
 Gauss-broadening in eV      SIGMA  =   0.10


--------------------------------------------------------------------------------------------------------


  energy-cutoff  :      400.00
  volume of cell :      738.62
      direct lattice vectors                 reciprocal lattice vectors
     9.039728671 -0.008796908  0.009535012     0.110623370  0.000038316 -0.000515481
    -0.003132726  9.060330276  0.001167765     0.000107219  0.110371267  0.000177341
     0.042028095 -0.014531051  9.018238663    -0.000116976 -0.000014332  0.110886920

  length of vectors
     9.039737980  9.060330893  9.018348302     0.110624578  0.110371461  0.110886982


 
 k-points in units of 2pi/SCALE and weight: HECN                                    
   0.00000000  0.00000000  0.00000000       0.037
   0.03687446  0.00001277 -0.00017183       0.074
   0.00003574  0.03679042  0.00005911       0.074
   0.03691020  0.03680319 -0.00011271       0.074
  -0.03683872  0.03677765  0.00023094       0.074
  -0.00003899 -0.00000478  0.03696231       0.074
   0.03683546  0.00000799  0.03679048       0.074
  -0.03691345 -0.00001755  0.03713413       0.074
  -0.00000325  0.03678564  0.03702142       0.074
   0.03687120  0.03679842  0.03684959       0.074
  -0.03687771  0.03677287  0.03719325       0.074
  -0.00007473 -0.03679520  0.03690319       0.074
   0.03679972 -0.03678243  0.03673137       0.074
  -0.03694919 -0.03680797  0.03707502       0.074
 
 k-points in reciprocal lattice and weights: HECN                                    
   0.00000000  0.00000000  0.00000000       0.037
   0.33333333  0.00000000  0.00000000       0.074
   0.00000000  0.33333333  0.00000000       0.074
   0.33333333  0.33333333 -0.00000000       0.074
  -0.33333333  0.33333333 -0.00000000       0.074
   0.00000000 -0.00000000  0.33333333       0.074
   0.33333333 -0.00000000  0.33333333       0.074
  -0.33333333 -0.00000000  0.33333333       0.074
   0.00000000  0.33333333  0.33333333       0.074
   0.33333333  0.33333333  0.33333333       0.074
  -0.33333333  0.33333333  0.33333333       0.074
   0.00000000 -0.33333333  0.33333333       0.074
   0.33333333 -0.33333333  0.33333333       0.074
  -0.33333333 -0.33333333  0.33333333       0.074
 
 position of ions in fractional coordinates (direct lattice) 
   0.99614388  0.99888572  0.99985940
   0.25018339  0.00044227  0.25139747
   0.24945717  0.49987491  0.25085290
   0.50064117  0.50190099  0.99899695
   0.50116791  0.24589837  0.74339623
   0.99770083  0.49993588  0.49972288
   0.49836155  0.75421905  0.74951196
   0.98742321  0.23107217  0.26824219
   0.76951960  0.73738255  0.99688472
   0.01948111  0.27592937  0.75096238
   0.76975127  0.25884506  0.47914419
   0.99122308  0.73279627  0.75415907
   0.26269579  0.48755306  0.74841205
   0.24425967  0.25226850  0.99487845
   0.50355731  0.25630059  0.25307916
   0.74861405  0.99891642  0.25429125
   0.75709901  0.25779145  0.99235448
   0.24219828  0.74767776  0.99708613
   0.24565374  0.25114586  0.50479551
   0.24430152  0.74938844  0.50442604
   0.24973189  0.24849423  0.25210920
   0.25632949  0.99993294  0.99481244
   0.00057065  0.25421950  0.01124952
   0.74967704  0.24885476  0.24227306
   0.74344934  0.00206690  0.99667574
   0.50259787  0.00080995  0.24902777
   0.99485014  0.49666995  0.24350717
   0.49658685  0.76079586  0.00355541
   0.99921959  0.00098963  0.74860118
   0.75754448  0.23755138  0.74904244
   0.74443672  0.00198612  0.50401924
   0.50177382  0.24081808  0.49540614
   0.50636333  0.00016967  0.75022397
   0.99583756  0.99762249  0.25416458
   0.50362357  0.24246183  0.00120418
   0.25099659  0.75108695  0.24947487
   0.24405054  0.49943566  0.99725344
   0.00000910  0.74602004  0.00150828
   0.74687140  0.74830530  0.24584709
   0.75718105  0.50182894  0.99954172
   0.50298611  0.50211111  0.25279214
   0.25335381  0.24497162  0.74942572
   0.25047022  0.99998366  0.50516186
   0.99503040  0.24856423  0.51402762
   0.24337191  0.75531753  0.75100381
   0.25251330  0.49964993  0.50369820
   0.99536418  0.75482110  0.50402525
   0.00256329  0.50124239  0.75361286
   0.74890626  0.75248222  0.74997241
   0.74676521  0.49555246  0.50073077
   0.49863831  0.75054242  0.49697020
   0.50173750  0.50003609  0.74580179
   0.50233875  0.00681899  0.00806253
   0.99873704  0.50480607  0.99932456
   0.50120491  0.74431592  0.25221235
   0.23028326  0.00369011  0.74627153
   0.49361013  0.98797346  0.49016878
   0.76506547  0.98786272  0.74491119
   0.99630345  0.76351619  0.25317624
   0.74599579  0.50219872  0.25316053
   0.99909008  0.00293078  0.49930503
   0.49991922  0.51265534  0.49948823
   0.74224606  0.51696646  0.74781963
   0.75237115  0.74264536  0.49692604
 
 position of ions in cartesian coordinates  (Angst):
   9.04376338  9.02694252  9.02763542
   2.27215432 -0.00184676  2.26954843
   2.26400201  4.52319215  2.26521364
   4.56607396  4.52846816  9.01455260
   4.56089516  2.21270942  6.70919043
   9.03838103  4.51354599  4.51671705
   4.53419098  6.81819850  6.76491035
   8.93658770  2.08100602  2.42875701
   6.99583557  6.65967427  8.99834279
   0.20680102  2.48892758  6.77286594
   6.97766927  2.33148780  4.32867856
   8.98978792  6.61969783  6.81149351
   2.40462566  4.40420562  6.75243267
   2.24906366  2.26903054  8.97467491
   4.56185494  2.31406074  2.28742903
   6.77482596  9.04023210  2.30156376
   6.88486881  2.31459561  8.95680952
   2.22897006  6.75758811  8.99514317
   2.24107200  2.26596823  4.55500200
   2.22727193  6.78022780  4.55223891
   2.26732576  2.24557951  2.27625232
   2.35582659  9.04301209  8.97506779
   0.00483495  2.30314412  0.10175316
   6.78627970  2.24459100  2.19231510
   6.76246218 -0.00229602  8.99535090
   4.55381199 -0.00070153  2.25058508
   9.00185358  4.48770379  2.20607164
   4.48677649  6.88864164  0.03768693
   9.06413313 -0.01070166  6.76059284
   6.87873320  2.13474551  6.76254409
   6.75068271  0.00412220  4.55246635
   4.55596574  2.17027854  4.47275647
   4.60891704 -0.01381871  6.77052717
   9.00965812  9.02633566  2.30277716
   4.55191143  2.19233639  0.01594480
   2.27707308  6.79926271  2.25309428
   2.24649871  4.50841401  8.99637977
  -0.00219142  6.75916599  0.01447326
   6.75950307  6.76975057  2.22510302
   6.88514802  4.52555068  9.02191153
   4.55590932  4.54119446  2.28512215
   2.32097922  2.20640514  6.76120177
   2.28228113  9.05063833  4.55922621
   9.01562980  2.23585144  4.64540167
   2.22921310  6.83037248  6.77593420
   2.30225597  4.51745279  4.54546180
   9.01664067  6.82284832  4.55579230
   0.05327409  4.53044829  6.79687044
   6.79907201  6.80025151  6.77144978
   6.77004725  4.47602360  4.52340868
   4.52609051  6.78855426  4.48742686
   4.56534900  4.51524111  6.73118656
   4.54132347  0.05724616  0.07750757
   9.06873014  4.55040267  9.02225987
   4.53902469  6.73567413  2.28015932
   2.11305102  0.02056370  6.73225483
   4.47960744  8.93990097  4.42631931
   6.94419675  8.93280797  6.72623542
   9.01456152  6.90526552  2.29359510
   6.75266614  4.53984516  2.29076157
   9.05247891  0.01050954  4.51238166
   4.53852059  4.63317085  4.50986950
   6.73951288  4.66649084  6.75169692
   6.81978937  6.71477287  4.48943871
 


--------------------------------------------------------------------------------------------------------


 k-point     1 :   0.0000 0.0000 0.0000  plane waves:   13371
 k-point     2 :   0.3333 0.0000 0.0000  plane waves:   13413
 k-point     3 :   0.0000 0.3333 0.0000  plane waves:   13419
 k-point     4 :   0.3333 0.3333-0.0000  plane waves:   13436
 k-point     5 :  -0.3333 0.3333-0.0000  plane waves:   13445
 k-point     6 :   0.0000-0.0000 0.3333  plane waves:   13409
 k-point     7 :   0.3333-0.0000 0.3333  plane waves:   13445
 k-point     8 :  -0.3333-0.0000 0.3333  plane waves:   13426
 k-point     9 :   0.0000 0.3333 0.3333  plane waves:   13433
 k-point    10 :   0.3333 0.3333 0.3333  plane waves:   13404
 k-point    11 :  -0.3333 0.3333 0.3333  plane waves:   13402
 k-point    12 :   0.0000-0.3333 0.3333  plane waves:   13436
 k-point    13 :   0.3333-0.3333 0.3333  plane waves:   13406
 k-point    14 :  -0.3333-0.3333 0.3333  plane waves:   13400

 maximum and minimum number of plane-waves per node :     13445    13371

 maximum number of plane-waves:     13445
 maximum index in each direction: 
   IXMAX=   15   IYMAX=   15   IZMAX=   14
   IXMIN=  -15   IYMIN=  -15   IZMIN=  -15


 serial   3D FFT for wavefunctions
 parallel 3D FFT for charge:
    minimum data exchange during FFTs selected (reduces bandwidth)


 total amount of memory used by VASP MPI-rank0   279840. kBytes
=======================================================================

   base      :      30000. kBytes
   nonl-proj :     203851. kBytes
   fftplans  :       1680. kBytes
   grid      :       8060. kBytes
   one-center:        995. kBytes
   wavefun   :      35254. kBytes
 
     INWAV:  cpu time      0.0000: real time      0.0003
 Broyden mixing: mesh for mixing (old mesh)
   NGX = 29   NGY = 29   NGZ = 29
  (NGX  = 96   NGY  = 96   NGZ  = 96)
  gives a total of  24389 points

 initial charge density was supplied:
 charge density of overlapping atoms calculated
 number of electron     475.0000000 magnetization 
 keeping initial charge density in first step


--------------------------------------------------------------------------------------------------------


 Maximum index for augmentation-charges          701 (set IRDMAX)


--------------------------------------------------------------------------------------------------------


 First call to EWALD:  gamma=   0.196
 Maximum number of real-space cells 3x 3x 3
 Maximum number of reciprocal cells 3x 3x 3

    FEWALD:  cpu time      0.0025: real time      0.0025


--------------------------------------- Ionic step        1  -------------------------------------------




--------------------------------------- Iteration      1(   1)  ---------------------------------------


    POTLOK:  cpu time      0.0243: real time      0.0326
    SETDIJ:  cpu time      0.0064: real time      0.0093
     EDDAV:  cpu time     21.0495: real time     21.2197
       DOS:  cpu time      0.0021: real time      0.0053
    --------------------------------------------
      LOOP:  cpu time     21.0824: real time     21.2670

 eigenvalue-minimisations  :  8624
 total energy-change (2. order) : 0.3678499E+04  (-0.2108492E+05)
 number of electron     475.0000000 magnetization 
 augmentation part      475.0000000 magnetization 

 Free energy of the ion-electron system (eV)
  ---------------------------------------------------
  alpha Z        PSCENC =      3932.95660159
  Ewald energy   TEWEN  =    -35562.01667136
  -Hartree energ DENC   =     -5408.54534221
  -exchange      EXHF   =         0.00000000
  -V(xc)+E(xc)   XCENC  =      1147.66370079
  PAW double counting   =     22733.95488290   -21916.34231637
  entropy T*S    EENTRO =        -0.04914054
  eigenvalues    EBANDS =       605.33556163
  atomic energy  EATOM  =     38145.54165741
  Solvation  Ediel_sol  =         0.00000000
  ---------------------------------------------------
  free energy    TOTEN  =      3678.49893385 eV

  energy without entropy =     3678.54807439  energy(sigma->0) =     3678.52350412


--------------------------------------------------------------------------------------------------------




--------------------------------------- Iteration      1(   2)  ---------------------------------------


     EDDAV:  cpu time     23.4712: real time     24.1062
       DOS:  cpu time      0.0010: real time      0.0076
    --------------------------------------------
      LOOP:  cpu time     23.4722: real time     24.1137

 eigenvalue-minimisations  :  9828
 total energy-change (2. order) :-0.3956843E+04  (-0.3716819E+04)
 number of electron     475.0000000 magnetization 
 augmentation part      475.0000000 magnetization 

 Free energy of the ion-electron system (eV)
  ---------------------------------------------------
  alpha Z        PSCENC =      3932.95660159
  Ewald energy   TEWEN  =    -35562.01667136
  -Hartree energ DENC   =     -5408.54534221
  -exchange      EXHF   =         0.00000000
  -V(xc)+E(xc)   XCENC  =      1147.66370079
  PAW double counting   =     22733.95488290   -21916.34231637
  entropy T*S    EENTRO =        -0.08539294
  eigenvalues    EBANDS =     -3351.47115154
  atomic energy  EATOM  =     38145.54165741
  Solvation  Ediel_sol  =         0.00000000
  ---------------------------------------------------
  free energy    TOTEN  =      -278.34403173 eV

  energy without entropy =     -278.25863879  energy(sigma->0) =     -278.30133526


--------------------------------------------------------------------------------------------------------




--------------------------------------- Iteration      1(   3)  ---------------------------------------


     EDDAV:  cpu time     32.0134: real time     32.3758
       DOS:  cpu time      0.0009: real time      0.0009
    --------------------------------------------
      LOOP:  cpu time     32.0142: real time     32.3767

 eigenvalue-minimisations  : 14056
 total energy-change (2. order) :-0.4718148E+03  (-0.4628485E+03)
 number of electron     475.0000000 magnetization 
 augmentation part      475.0000000 magnetization 

 Free energy of the ion-electron system (eV)
  ---------------------------------------------------
  alpha Z        PSCENC =      3932.95660159
  Ewald energy   TEWEN  =    -35562.01667136
  -Hartree energ DENC   =     -5408.54534221
  -exchange      EXHF   =         0.00000000
  -V(xc)+E(xc)   XCENC  =      1147.66370079
  PAW double counting   =     22733.95488290   -21916.34231637
  entropy T*S    EENTRO =        -0.08470313
  eigenvalues    EBANDS =     -3823.28667725
  atomic energy  EATOM  =     38145.54165741
  Solvation  Ediel_sol  =         0.00000000
  ---------------------------------------------------
  free energy    TOTEN  =      -750.15886763 eV

  energy without entropy =     -750.07416450  energy(sigma->0) =     -750.11651606


--------------------------------------------------------------------------------------------------------




--------------------------------------- Iteration      1(   4)  ---------------------------------------


     EDDAV:  cpu time     32.5968: real time     32.9885
       DOS:  cpu time      0.0008: real time      0.0008
    --------------------------------------------
      LOOP:  cpu time     32.5977: real time     32.9893

 eigenvalue-minimisations  : 14196
 total energy-change (2. order) :-0.2867681E+02  (-0.2850053E+02)
 number of electron     475.0000000 magnetization 
 augmentation part      475.0000000 magnetization 

 Free energy of the ion-electron system (eV)
  ---------------------------------------------------
  alpha Z        PSCENC =      3932.95660159
  Ewald energy   TEWEN  =    -35562.01667136
  -Hartree energ DENC   =     -5408.54534221
  -exchange      EXHF   =         0.00000000
  -V(xc)+E(xc)   XCENC  =      1147.66370079
  PAW double counting   =     22733.95488290   -21916.34231637
  entropy T*S    EENTRO =        -0.08772418
  eigenvalues    EBANDS =     -3851.96046900
  atomic energy  EATOM  =     38145.54165741
  Solvation  Ediel_sol  =         0.00000000
  ---------------------------------------------------
  free energy    TOTEN  =      -778.83568043 eV

  energy without entropy =     -778.74795625  energy(sigma->0) =     -778.79181834


--------------------------------------------------------------------------------------------------------




--------------------------------------- Iteration      1(   5)  ---------------------------------------


     EDDAV:  cpu time     34.1056: real time     34.4805
       DOS:  cpu time      0.0009: real time      0.0009
    CHARGE:  cpu time      0.1689: real time      0.1735
    MIXING:  cpu time      0.0040: real time      0.0074
    --------------------------------------------
      LOOP:  cpu time     34.2794: real time     34.6623

 eigenvalue-minimisations  : 14952
 total energy-change (2. order) :-0.2862616E+01  (-0.2858731E+01)
 number of electron     474.9999969 magnetization 
 augmentation part       73.5125523 magnetization 

 Broyden mixing:
  rms(total) = 0.56354E+01    rms(broyden)= 0.56339E+01
  rms(prec ) = 0.89890E+01
  weight for this iteration     100.00

 Free energy of the ion-electron system (eV)
  ---------------------------------------------------
  alpha Z        PSCENC =      3932.95660159
  Ewald energy   TEWEN  =    -35562.01667136
  -Hartree energ DENC   =     -5408.54534221
  -exchange      EXHF   =         0.00000000
  -V(xc)+E(xc)   XCENC  =      1147.66370079
  PAW double counting   =     22733.95488290   -21916.34231637
  entropy T*S    EENTRO =        -0.08759544
  eigenvalues    EBANDS =     -3854.82321356
  atomic energy  EATOM  =     38145.54165741
  Solvation  Ediel_sol  =         0.00000000
  ---------------------------------------------------
  free energy    TOTEN  =      -781.69829624 eV

  energy without entropy =     -781.61070080  energy(sigma->0) =     -781.65449852


--------------------------------------------------------------------------------------------------------




--------------------------------------- Iteration      1(   6)  ---------------------------------------


    POTLOK:  cpu time      0.0237: real time      0.0239
    SETDIJ:  cpu time      0.0052: real time      0.0054
    EDDIAG:  cpu time      1.5125: real time      1.5312
  RMM-DIIS:  cpu time     18.3576: real time     18.6520
    ORTHCH:  cpu time      0.3499: real time      0.3529
       DOS:  cpu time      0.0009: real time      0.0009
    CHARGE:  cpu time      0.1658: real time      0.1666
    MIXING:  cpu time      0.0016: real time      0.0024
    --------------------------------------------
      LOOP:  cpu time     20.4172: real time     20.7352

 eigenvalue-minimisations  : 11415
 total energy-change (2. order) : 0.1142766E+03  (-0.5465149E+02)
 number of electron     474.9999970 magnetization 
 augmentation part       79.0958894 magnetization 

 Broyden mixing:
  rms(total) = 0.19261E+01    rms(broyden)= 0.19244E+01
  rms(prec ) = 0.36140E+01
  weight for this iteration     100.00

 eigenvalues of (default mixing * dielectric matrix)
  average eigenvalue GAMMA=   0.8343
  0.8343

 Free energy of the ion-electron system (eV)
  ---------------------------------------------------
  alpha Z        PSCENC =      3932.95660159
  Ewald energy   TEWEN  =    -35562.01667136
  -Hartree energ DENC   =     -5313.32545068
  -exchange      EXHF   =         0.00000000
  -V(xc)+E(xc)   XCENC  =      1161.14537251
  PAW double counting   =     22746.88631255   -21974.52290383
  entropy T*S    EENTRO =        -0.10155459
  eigenvalues    EBANDS =     -3803.98502084
  atomic energy  EATOM  =     38145.54165741
  Solvation  Ediel_sol  =         0.00000000
  ---------------------------------------------------
  free energy    TOTEN  =      -667.42165723 eV

  energy without entropy =     -667.32010264  energy(sigma->0) =     -667.37087993


--------------------------------------------------------------------------------------------------------




--------------------------------------- Iteration      1(   7)  ---------------------------------------


    POTLOK:  cpu time      0.0176: real time      0.0177
    SETDIJ:  cpu time      0.0052: real time      0.0052
    EDDIAG:  cpu time      1.4852: real time      1.5056
  RMM-DIIS:  cpu time     21.6948: real time     21.9768
    ORTHCH:  cpu time      0.3467: real time      0.3486
       DOS:  cpu time      0.0010: real time      0.0010
    CHARGE:  cpu time      0.1650: real time      0.1669
    MIXING:  cpu time      0.0011: real time      0.0011
    --------------------------------------------
      LOOP:  cpu time     23.7165: real time     24.0228

 eigenvalue-minimisations  : 13265
 total energy-change (2. order) : 0.5910462E+00  (-0.1072613E+02)
 number of electron     474.9999970 magnetization 
 augmentation part       75.7268619 magnetization 

 Broyden mixing:
  rms(total) = 0.13889E+01    rms(broyden)= 0.13886E+01
  rms(prec ) = 0.26391E+01
  weight for this iteration     100.00

 eigenvalues of (default mixing * dielectric matrix)
  average eigenvalue GAMMA=   0.6930
  0.8658  0.5203

 Free energy of the ion-electron system (eV)
  ---------------------------------------------------
  alpha Z        PSCENC =      3932.95660159
  Ewald energy   TEWEN  =    -35562.01667136
  -Hartree energ DENC   =     -5179.32683811
[...]
 -0.010   0.022   0.004   0.000  -0.001  -0.051   0.025   0.005  -0.001  -0.560   0.017   0.000  -0.003  -0.002   0.973  -0.035
  0.037  -0.074  -0.001  -0.009   0.004  -0.037  -0.021  -0.032  -0.014   0.017  -1.072   0.003  -0.040   0.013  -0.035   2.627
 -0.005   0.010  -0.000   0.001  -0.004   0.004   0.003   0.030   0.001  -0.000   0.003  -0.625   0.003  -0.003   0.002  -0.013
 -0.030   0.054  -0.000  -0.002  -0.008  -0.081   0.026   0.070  -0.009  -0.003  -0.040   0.003  -0.998  -0.010  -0.019   0.044


------------------------ aborting loop because EDIFF is reached ----------------------------------------


    CHARGE:  cpu time      0.1675: real time      0.1691
    FORLOC:  cpu time      0.0075: real time      0.0075
    FORNL :  cpu time      6.5945: real time      6.7363
    STRESS:  cpu time     29.3214: real time     29.8191
    FORCOR:  cpu time      0.0193: real time      0.0193
    FORHAR:  cpu time      0.0100: real time      0.0105
    MIXING:  cpu time      0.0009: real time      0.0009
    OFIELD:  cpu time      0.0001: real time      0.0001

  FORCE on cell =-STRESS in cart. coord.  units (eV):
  Direction    XX          YY          ZZ          XY          YZ          ZX
  --------------------------------------------------------------------------------------
  Alpha Z  3932.42217  3932.42217  3932.42217
  Ewald  -11783.75752-12018.36769-11758.54583    64.84598    34.99107   -11.97416
  Hartree  1788.10714  1621.49904  1774.81652    57.66769    36.44967   -30.46307
  E(xc)   -2009.54139 -2009.69567 -2008.86962     0.01770    -0.32783    -0.23017
  Local    1328.43353  1725.15849  1324.06560  -123.02401   -72.48354    40.80025
  n-local -1102.47584 -1101.36863 -1100.29882     1.30398     1.41783     1.78263
  augment   648.53817   647.62905   647.65866     0.15716    -0.13277     0.06249
  Kinetic  7198.19154  7202.66978  7188.66344    -0.96597     0.07078     0.01165
  Fock        0.00000     0.00000     0.00000     0.00000     0.00000     0.00000
  -------------------------------------------------------------------------------------
  Total      -0.08220    -0.05345    -0.08787     0.00252    -0.01480    -0.01037
  in kB      -0.17827    -0.11592    -0.19057     0.00546    -0.03211    -0.02250
  external pressure =       -0.16 kB  Pullay stress =        0.00 kB


 VOLUME and BASIS-vectors are now :
 -----------------------------------------------------------------------------
  energy-cutoff  :      400.00
  volume of cell :      738.72
      direct lattice vectors                 reciprocal lattice vectors
     9.040559703 -0.009328954  0.010020111     0.110613245  0.000044892 -0.000521397
    -0.003667274  9.060221320  0.002084280     0.000113709  0.110372588  0.000166159
     0.042517101 -0.013620984  9.018745897    -0.000122921 -0.000025558  0.110880702

  length of vectors
     9.040570069  9.060222302  9.018856402     0.110614483  0.110372771  0.110880773


 FORCES acting on ions
    electron-ion (+dipol)            ewald-force                    non-local-force                 convergence-correction
 -----------------------------------------------------------------------------------------------
   0.183E+02 -.354E+02 0.471E+02   -.185E+02 0.341E+02 -.459E+02   0.189E+00 0.132E+01 -.126E+01   0.132E-01 0.113E-01 -.138E-02
   0.376E+02 -.612E+02 0.216E+02   -.391E+02 0.598E+02 -.200E+02   0.142E+01 0.137E+01 -.159E+01   0.203E-02 0.906E-03 -.250E-02
   0.518E+02 0.608E+02 0.303E+02   -.511E+02 -.597E+02 -.302E+02   -.756E+00 -.116E+01 -.115E+00   -.339E-02 0.175E-02 -.680E-03
   0.548E+02 0.257E+02 0.572E+02   -.552E+02 -.274E+02 -.571E+02   0.393E+00 0.173E+01 -.110E+00   -.302E-02 -.689E-02 0.172E-02
   0.115E+02 -.385E+02 -.167E+02   -.121E+02 0.390E+02 0.172E+02   0.602E+00 -.559E+00 -.527E+00   -.671E-02 -.684E-02 0.579E-02
   -.948E+02 0.109E+03 -.119E+03   0.952E+02 -.109E+03 0.120E+03   -.350E+00 -.251E+00 -.446E+00   0.460E-02 -.325E-02 -.422E-03
   0.927E+02 0.173E+02 -.846E+02   -.930E+02 -.180E+02 0.837E+02   0.348E+00 0.732E+00 0.836E+00   -.309E-02 0.268E-02 -.231E-02
   -.200E+02 -.351E+02 0.103E+02   0.195E+02 0.334E+02 -.906E+01   0.449E+00 0.173E+01 -.122E+01   0.333E-02 0.122E-02 -.461E-02
   0.762E+01 -.302E+02 0.247E+02   -.595E+01 0.284E+02 -.244E+02   -.167E+01 0.182E+01 -.216E+00   -.239E-02 0.350E-03 0.254E-02
   0.918E+01 -.933E+01 -.560E+01   -.779E+01 0.116E+02 0.386E+01   -.139E+01 -.231E+01 0.174E+01   0.169E-02 -.275E-02 0.443E-02
   -.935E+01 0.197E+02 -.492E+02   0.113E+02 -.180E+02 0.488E+02   -.192E+01 -.168E+01 0.390E+00   0.548E-03 -.114E-02 0.185E-02
   -.580E+02 0.127E+02 -.299E+02   0.584E+02 -.146E+02 0.295E+02   -.331E+00 0.191E+01 0.358E+00   0.288E-02 -.470E-03 -.112E-03
   0.692E+02 -.153E+02 -.191E+02   -.683E+02 0.149E+02 0.189E+02   -.953E+00 0.485E+00 0.255E+00   -.517E-03 -.456E-02 0.166E-02
   0.341E+02 -.556E+02 0.417E+02   -.334E+02 0.573E+02 -.425E+02   -.655E+00 -.173E+01 0.821E+00   -.224E-02 -.339E-02 -.349E-02
   0.566E+01 0.931E+01 0.200E+02   -.584E+01 -.727E+01 -.206E+02   0.184E+00 -.203E+01 0.563E+00   -.494E-02 -.300E-02 -.517E-02
   -.219E+02 -.664E+02 0.554E+02   0.232E+02 0.650E+02 -.551E+02   -.134E+01 0.144E+01 -.260E+00   -.564E-02 0.680E-03 -.503E-02
   -.436E+02 0.938E+01 0.280E+02   0.428E+02 -.784E+01 -.288E+02   0.799E+00 -.154E+01 0.733E+00   0.238E-02 -.311E-02 -.337E-02
   0.300E+02 0.563E+02 0.965E+02   -.309E+02 -.577E+02 -.965E+02   0.872E+00 0.140E+01 0.437E-02   0.365E-02 0.245E-02 0.496E-02
   0.646E+02 -.492E+02 -.435E+02   -.654E+02 0.497E+02 0.442E+02   0.802E+00 -.478E+00 -.729E+00   -.112E-02 -.249E-03 0.426E-02
   0.461E+02 0.502E+02 -.967E+02   -.466E+02 -.505E+02 0.968E+02   0.429E+00 0.324E+00 -.644E-01   0.647E-02 -.272E-03 -.473E-02
   0.558E+02 -.146E+02 0.116E+02   -.557E+02 0.155E+02 -.119E+02   -.491E-01 -.892E+00 0.335E+00   0.196E-02 0.610E-03 -.211E-02
   0.125E+02 -.934E+01 0.245E+02   -.133E+02 0.881E+01 -.236E+02   0.737E+00 0.532E+00 -.829E+00   0.104E-02 0.250E-02 0.218E-02
   -.924E+01 -.979E+01 0.878E+01   0.958E+01 0.929E+01 -.812E+01   -.344E+00 0.498E+00 -.650E+00   0.181E-02 0.406E-03 -.794E-02
   -.468E+02 0.271E+02 -.152E+02   0.449E+02 -.268E+02 0.117E+02   0.182E+01 -.305E+00 0.354E+01   -.197E-02 0.371E-03 -.791E-02
   -.141E+02 0.270E+02 0.225E+01   0.147E+02 -.273E+02 -.116E+01   -.587E+00 0.245E+00 -.109E+01   0.927E-04 0.586E-02 -.700E-03
   -.161E+02 -.249E+02 0.139E+02   0.156E+02 0.258E+02 -.138E+02   0.515E+00 -.932E+00 -.636E-01   -.255E-02 0.142E-02 0.560E-03
   -.306E+02 0.806E+02 0.115E+02   0.316E+02 -.807E+02 -.103E+02   -.995E+00 0.142E+00 -.124E+01   0.417E-02 0.133E-02 0.495E-03
   -.321E+02 0.682E+01 0.150E+02   0.327E+02 -.798E+01 -.165E+02   -.631E+00 0.115E+01 0.145E+01   -.495E-02 0.245E-03 -.239E-03
   0.500E+00 -.191E+02 -.277E+02   -.111E+01 0.201E+02 0.280E+02   0.606E+00 -.956E+00 -.318E+00   0.122E-02 0.125E-01 0.641E-02
   -.702E+02 -.179E+02 0.484E+02   0.701E+02 0.188E+02 -.491E+02   0.103E+00 -.843E+00 0.663E+00   0.616E-02 -.353E-02 0.571E-02
   0.947E+01 -.986E+02 -.525E+01   -.101E+02 0.994E+02 0.463E+01   0.631E+00 -.765E+00 0.624E+00   -.359E-02 -.144E-02 -.698E-03
   -.376E+02 -.171E+01 -.689E+01   0.384E+02 0.267E+01 0.767E+01   -.806E+00 -.953E+00 -.787E+00   -.299E-02 -.223E-03 -.733E-03
   0.124E+02 -.166E+02 -.114E+02   -.131E+02 0.168E+02 0.114E+02   0.694E+00 -.213E+00 0.876E-03   -.351E-02 0.962E-03 0.191E-02
   0.682E+01 -.801E+02 0.302E+02   -.651E+01 0.790E+02 -.307E+02   -.312E+00 0.109E+01 0.531E+00   0.226E-02 -.204E-02 -.422E-02
   0.102E+02 -.200E+02 0.448E+01   -.102E+02 0.212E+02 -.474E+01   -.592E-01 -.120E+01 0.264E+00   -.140E-02 -.481E-03 0.979E-03
   -.374E+01 0.114E+02 0.994E+01   0.330E+01 -.117E+02 -.988E+01   0.436E+00 0.301E+00 -.609E-01   0.120E-02 -.384E-04 -.700E-03
   0.115E+02 0.865E+01 0.658E+02   -.107E+02 -.834E+01 -.647E+02   -.832E+00 -.314E+00 -.109E+01   0.131E-03 -.135E-02 0.208E-02
   0.153E+02 0.393E+01 0.701E+02   -.136E+02 -.313E+01 -.694E+02   -.175E+01 -.799E+00 -.746E+00   0.591E-02 0.653E-03 0.527E-02
   0.689E+01 -.300E+02 0.821E+02   -.676E+01 0.305E+02 -.817E+02   -.132E+00 -.495E+00 -.392E+00   -.164E-02 0.948E-03 0.248E-02
   -.986E+01 -.124E+02 0.155E+02   0.892E+01 0.110E+02 -.156E+02   0.941E+00 0.143E+01 0.104E+00   -.527E-03 -.516E-02 -.745E-03
   0.282E+02 0.288E+02 0.309E+02   -.289E+02 -.296E+02 -.315E+02   0.762E+00 0.792E+00 0.605E+00   -.232E-02 0.672E-03 -.143E-02
   0.454E+02 -.518E+02 -.880E+01   -.439E+02 0.513E+02 0.859E+01   -.153E+01 0.410E+00 0.206E+00   -.508E-02 -.256E-02 0.113E-02
   -.109E+01 -.143E+02 -.163E+02   0.922E+00 0.142E+02 0.155E+02   0.160E+00 0.135E+00 0.775E+00   0.326E-02 0.180E-02 0.121E-03
   0.139E+02 -.241E+02 -.246E+02   -.133E+02 0.245E+02 0.256E+02   -.570E+00 -.391E+00 -.105E+01   0.398E-02 0.231E-02 0.751E-02
   0.532E+02 0.601E+02 -.977E+01   -.523E+02 -.600E+02 0.961E+01   -.866E+00 -.942E-01 0.155E+00   0.451E-02 0.214E-02 0.486E-03
   0.366E+02 0.141E+02 -.656E+02   -.375E+02 -.139E+02 0.645E+02   0.858E+00 -.192E+00 0.111E+01   -.136E-02 -.115E-02 -.230E-02
   -.502E+02 0.229E+02 -.788E+02   0.507E+02 -.234E+02 0.784E+02   -.466E+00 0.466E+00 0.492E+00   0.220E-02 -.233E-02 -.444E-02
   -.623E+02 0.103E+02 -.592E+01   0.618E+02 -.101E+02 0.483E+01   0.480E+00 -.145E+00 0.108E+01   0.135E-02 -.119E-01 0.107E-02
   -.511E+02 -.212E+02 -.731E+02   0.496E+02 0.210E+02 0.724E+02   0.154E+01 0.193E+00 0.661E+00   -.600E-02 -.159E-02 -.211E-02
   -.308E+02 0.934E+02 -.238E+02   0.313E+02 -.930E+02 0.244E+02   -.472E+00 -.332E+00 -.613E+00   0.328E-03 0.386E-02 -.876E-03
   0.419E+02 -.201E+02 -.160E+02   -.424E+02 0.195E+02 0.171E+02   0.509E+00 0.586E+00 -.105E+01   -.662E-03 0.780E-03 -.212E-02
   0.722E+02 0.223E+02 -.292E+02   -.715E+02 -.222E+02 0.297E+02   -.728E+00 -.726E-01 -.574E+00   -.454E-03 0.277E-03 0.216E-02
   -.186E+02 -.790E+01 0.471E+02   0.188E+02 0.928E+01 -.474E+02   -.145E+00 -.139E+01 0.267E+00   -.116E-01 0.678E-02 0.854E-02
   -.547E+02 0.360E+02 0.116E+03   0.553E+02 -.354E+02 -.115E+03   -.611E+00 -.562E+00 -.406E+00   0.606E-02 -.102E-01 0.107E-02
   0.239E+02 -.247E+02 0.869E+02   -.244E+02 0.226E+02 -.862E+02   0.513E+00 0.211E+01 -.650E+00   -.453E-02 -.116E-02 0.682E-02
   0.183E+01 -.346E+01 -.247E+02   -.227E+01 0.304E+01 0.232E+02   0.433E+00 0.407E+00 0.144E+01   0.373E-02 0.132E-01 0.197E-02
   0.908E+01 -.828E+02 -.525E+02   -.106E+02 0.817E+02 0.526E+02   0.149E+01 0.107E+01 -.176E+00   -.211E-02 -.368E-02 -.106E-01
   -.261E+02 -.570E+02 -.647E+02   0.263E+02 0.567E+02 0.640E+02   -.186E+00 0.347E+00 0.635E+00   0.235E-02 0.953E-02 0.944E-02
   -.324E+02 0.430E+02 0.837E+02   0.323E+02 -.425E+02 -.836E+02   0.933E-01 -.492E+00 -.812E-01   0.528E-03 0.198E-02 -.851E-02
   -.550E+02 0.976E+02 0.812E+02   0.553E+02 -.973E+02 -.810E+02   -.219E+00 -.328E+00 -.118E+00   0.550E-02 -.163E-01 0.707E-02
   -.167E+02 -.123E+03 -.607E+02   0.168E+02 0.123E+03 0.606E+02   -.269E-01 -.378E-02 0.771E-01   -.107E-01 0.451E-02 0.757E-02
   0.103E+03 0.134E+03 -.709E+02   -.103E+03 -.133E+03 0.709E+02   0.151E+00 -.676E+00 -.917E-02   0.678E-03 0.308E-02 -.240E-02
   -.133E+03 0.122E+03 -.769E+02   0.132E+03 -.121E+03 0.768E+02   0.501E+00 -.599E+00 0.486E-01   -.192E-02 0.159E-01 0.115E-01
   -.525E+02 -.394E+02 -.611E+02   0.527E+02 0.390E+02 0.611E+02   -.182E+00 0.351E+00 0.160E-01   -.206E-01 -.221E-01 -.712E-02
 -----------------------------------------------------------------------------------------------
   0.142E+01 -.839E+00 -.225E+01   0.405E-12 0.568E-13 0.568E-13   -.141E+01 0.848E+00 0.223E+01   -.223E-01 -.726E-02 0.201E-01
 
 
 POSITION                                       TOTAL-FORCE (eV/Angst)
 -----------------------------------------------------------------------------------
      9.04417      9.02725      9.02948        -0.002736     -0.000687     -0.000898
      2.27280     -0.00179      2.26951        -0.000506     -0.000043     -0.000124
      2.26433      4.52304      2.26581        -0.000000     -0.000579      0.000499
      4.56653      4.52917      9.01570         0.001425     -0.001382      0.000558
      4.56155      2.21328      6.71007        -0.000688      0.002606      0.000611
      9.03937      4.51318      4.51786        -0.002938      0.000113     -0.002400
      4.53451      6.81839      6.76643         0.001632     -0.001113     -0.000624
      8.93744      2.08060      2.42942        -0.001334      0.000923      0.001909
      6.99643      6.66001      9.00026         0.002805     -0.004244      0.004166
      0.20689      2.48974      6.77397        -0.000335      0.002379      0.002517
      6.97837      2.33096      4.32961         0.007133     -0.003825      0.002882
      8.99074      6.61970      6.81265        -0.001382     -0.002680     -0.001867
      2.40516      4.40492      6.75349         0.001441      0.001066     -0.000474
      2.24933      2.26977      8.97559         0.001730     -0.000917     -0.002644
      4.56230      2.31376      2.28817         0.000097     -0.000681     -0.001819
      6.77483      9.04006      2.30352         0.000573      0.000055      0.002571
      6.88599      2.31525      8.95798        -0.001732      0.000628      0.000100
      2.22939      6.75817      8.99656        -0.005000      0.001584     -0.000709
      2.24134      2.26631      4.55575        -0.000126     -0.001027      0.000151
      2.22749      6.78036      4.55343        -0.000463     -0.000379      0.000373
      2.26754      2.24550      2.27682         0.000543     -0.000362      0.000328
      2.35590      9.04365      8.97637         0.000013     -0.000432     -0.000657
      0.00468      2.30285      0.10199        -0.000489     -0.000515      0.000166
      6.78675      2.24440      2.19327        -0.000107      0.001056      0.000133
      6.76363     -0.00175      8.99627        -0.000723      0.001819      0.000163
      4.55437     -0.00086      2.25081         0.000683      0.000371      0.000232
      9.00238      4.48719      2.20695        -0.000347     -0.000455     -0.001186
      4.48677      6.88832      0.03869        -0.001497      0.000156     -0.000143
      9.06538     -0.01061      6.76116        -0.000849     -0.000545     -0.000372
      6.87956      2.13522      6.76350        -0.000451      0.003496      0.000691
      6.75157      0.00437      4.55315         0.000940      0.000851     -0.000081
      4.55628      2.17027      4.47355        -0.001450     -0.000640      0.000019
      4.60972     -0.01337      6.77104         0.001012      0.000783     -0.000781
      9.00992      9.02605      2.30424         0.001264     -0.000862     -0.001138
      4.55220      2.19201      0.01622         0.000278     -0.000163     -0.000122
      2.27704      6.79914      2.25411         0.000602      0.000029     -0.000393
      2.24692      4.50899      8.99734        -0.000636     -0.000073      0.000734
      9.03778      6.74977      0.02515         0.000067     -0.001217     -0.000852
      6.75992      6.76967      2.22630        -0.000004      0.001151      0.000888
      6.88596      4.52589      9.02310        -0.000040      0.000718     -0.000931
      4.55608      4.54099      2.28598         0.000124      0.001136     -0.000504
      2.32134      2.20706      6.76192        -0.001357      0.000331      0.001761
      2.28221      9.05070      4.56071         0.000322      0.000664     -0.000572
      9.01697      2.23573      4.64664        -0.001496     -0.001978     -0.000880
      2.22955      6.83085      6.77728         0.001359      0.000439      0.000534
      2.30246      4.51761      4.54635         0.001100      0.000369     -0.000599
      9.01742      6.82276      4.55730         0.001667     -0.000407     -0.000253
      0.05341      4.53096      6.79751         0.000108      0.002022     -0.000041
      6.79976      6.80070      6.77316         0.000084     -0.000157      0.001729
      6.77054      4.47584      4.52419        -0.000382     -0.000624     -0.002161
      4.52637      6.78880      4.48869         0.001413      0.001326     -0.000770
      4.56590      4.51552      6.73223         0.000256      0.000848     -0.001033
      4.54212      0.05688      0.07725         0.003093      0.002376     -0.001430
      9.06982      4.55047      9.02368        -0.000809      0.002528      0.000288
      4.53901      6.73586      2.28082         0.000396      0.000344      0.001814
      2.11349      0.02099      6.73299        -0.002356     -0.000023      0.000292
      4.47953      8.94014      4.42823        -0.002844     -0.000632      0.000743
      6.94445      8.93307      6.72759         0.002821      0.002733     -0.003502
      9.01536      6.90531      2.29516        -0.003581     -0.003731     -0.001980
      6.75269      4.54020      2.29167         0.004602     -0.002650     -0.000818
      9.05423      0.01035      4.51260        -0.006566      0.002834      0.005258
      4.53871      4.63377      4.51076         0.003294     -0.004324      0.000665
      6.73979      4.66677      6.75272         0.004695     -0.002881     -0.001013
      6.82069      6.71480      4.49073        -0.004345      0.002491      0.000997
 -----------------------------------------------------------------------------------
    total drift:                               -0.005925      0.001294      0.000233


--------------------------------------------------------------------------------------------------------



  FREE ENERGIE OF THE ION-ELECTRON SYSTEM (eV)
  ---------------------------------------------------
  free  energy   TOTEN  =      -664.39621620 eV

  energy  without entropy=     -664.29807100  energy(sigma->0) =     -664.34714360
 
 d Force = 0.3406740E-04[ 0.671E-05, 0.614E-04]  d Energy = 0.4625662E-04-0.122E-04
 d Force = 0.2622039E+00[ 0.262E+00, 0.263E+00]  d Ewald  =-0.1350704E+01 0.161E+01


--------------------------------------------------------------------------------------------------------


    POTLOK:  cpu time      0.0293: real time      0.0293


--------------------------------------------------------------------------------------------------------


 Conjugate gradient step on ions:
 trial-energy change:   -0.000046  1 .order   -0.000039   -0.000084    0.000007
  (g-gl).g = 0.836E-04      g.g   = 0.922E-04  gl.gl    = 0.278E-03
 g(Force)  = 0.719E-04   g(Stress)= 0.203E-04 ortho     = 0.865E-05
 gamma     =   0.30020
 trial     =   0.88688
 opt step  =   0.81980  (harmonic =   0.81980) maximal distance =0.00036275
 next E    =  -664.396209   (d E  =  -0.00004)


--------------------------------------------------------------------------------------------------------


  
 reached required accuracy - stopping structural energy minimisation
     LOOP+:  cpu time    120.6209: real time    122.5927
    4ORBIT:  cpu time      0.0000: real time      0.0000

 total amount of memory used by VASP MPI-rank0   279840. kBytes
=======================================================================

   base      :      30000. kBytes
   nonl-proj :     203851. kBytes
   fftplans  :       1680. kBytes
   grid      :       8060. kBytes
   one-center:        995. kBytes
   wavefun   :      35254. kBytes
 
  
  
 General timing and accounting informations for this job:
 ========================================================
  
                  Total CPU time used (sec):     2413.710
                            User time (sec):     2400.726
                          System time (sec):       12.984
                         Elapsed time (sec):     2446.090
  
                   Maximum memory used (kb):      330016.
                   Average memory used (kb):          N/A
  
                          Minor page faults:      2120513
                          Major page faults:            0
                 Voluntary context switches:         1614
