 running   28 mpi-ranks, on    1 nodes
 distrk:  each k-point on   28 cores,    1 groups
 distr:  one band on    1 cores,   28 groups
 vasp.6.4.3 19Mar24 (build Sep 18 2024 11:30:23) complex                        
  
 POSCAR found type information on POSCAR ZrMoHfN C TaNb
 POSCAR found :  7 types and      64 ions
 Reading from existing POTCAR
 scaLAPACK will be used
 -----------------------------------------------------------------------------
|                                                                             |
|           W    W    AA    RRRRR   N    N  II  N    N   GGGG   !!!           |
|           W    W   A  A   R    R  NN   N  II  NN   N  G    G  !!!           |
|           W    W  A    A  R    R  N N  N  II  N N  N  G       !!!           |
|           W WW W  AAAAAA  RRRRR   N  N N  II  N  N N  G  GGG   !            |
|           WW  WW  A    A  R   R   N   NN  II  N   NN  G    G                |
|           W    W  A    A  R    R  N    N  II  N    N   GGGG   !!!           |
|                                                                             |
|     For optimal performance we recommend to set                             |
|       NCORE = 2 up to number-of-cores-per-socket                            |
|     NCORE specifies how many cores store one orbital (NPAR=cpu/NCORE).      |
|     This setting can greatly improve the performance of VASP for DFT.       |
|     The default, NCORE=1 might be grossly inefficient on modern             |
|     multi-core architectures or massively parallel machines. Do your        |
|     own testing! More info at https://www.vasp.at/wiki/index.php/NCORE      |
|     Unfortunately you need to use the default for GW and RPA                |
|     calculations (for HF NCORE is supported but not extensively tested      |
|     yet).                                                                   |
|                                                                             |
 -----------------------------------------------------------------------------

 Reading from existing POTCAR
 -----------------------------------------------------------------------------
|                                                                             |
|               ----> ADVICE to this user running VASP <----                  |
|                                                                             |
|     You have a (more or less) 'large supercell' and for larger cells it     |
|     might be more efficient to use real-space projection operators.         |
|     Therefore, try LREAL= Auto in the INCAR file.                           |
|     Mind: If you want to do very accurate calculations, keep the            |
|     reciprocal projection scheme (i.e. LREAL=.FALSE.).                      |
|                                                                             |
 -----------------------------------------------------------------------------

 LDA part: xc-table for (Slater+PW92), standard interpolation
 POSCAR, INCAR and KPOINTS ok, starting setup
 FFT: planning ... GRIDC
 FFT: planning ... GRID_SOFT
 FFT: planning ... GRID
 WAVECAR not read
 entering main loop
       N       E                     dE             d eps       ncg     rms          rms(c)
DAV:   1     0.367849893385E+04    0.36785E+04   -0.21085E+05  8624   0.131E+03
DAV:   2    -0.278344031725E+03   -0.39568E+04   -0.37168E+04  9828   0.478E+02
DAV:   3    -0.750158867626E+03   -0.47181E+03   -0.46285E+03 14056   0.139E+02
DAV:   4    -0.778835680430E+03   -0.28677E+02   -0.28501E+02 14196   0.343E+01
DAV:   5    -0.781698296240E+03   -0.28626E+01   -0.28587E+01 14952   0.962E+00    0.564E+01
RMM:   6    -0.667421657225E+03    0.11428E+03   -0.54651E+02 11415   0.310E+01    0.193E+01
RMM:   7    -0.666830610978E+03    0.59105E+00   -0.10726E+02 13265   0.171E+01    0.139E+01
RMM:   8    -0.664295718835E+03    0.25349E+01   -0.28513E+01 13889   0.795E+00    0.823E+00
RMM:   9    -0.664057416783E+03    0.23830E+00   -0.69598E+00 13531   0.437E+00    0.545E+00
RMM:  10    -0.664008382935E+03    0.49034E-01   -0.36211E+00 14125   0.276E+00    0.281E+00
RMM:  11    -0.664074903229E+03   -0.66520E-01   -0.16959E+00 14389   0.199E+00    0.135E+00
RMM:  12    -0.664155536067E+03   -0.80633E-01   -0.13277E+00 14482   0.154E+00    0.993E-01
RMM:  13    -0.664232059957E+03   -0.76524E-01   -0.86505E-01 15040   0.125E+00    0.942E-01
RMM:  14    -0.664276363679E+03   -0.44304E-01   -0.54730E-01 14474   0.100E+00    0.764E-01
RMM:  15    -0.664297490902E+03   -0.21127E-01   -0.34852E-01 14164   0.891E-01    0.178E-01
RMM:  16    -0.664322037665E+03   -0.24547E-01   -0.26560E-01 15052   0.699E-01    0.244E-01
RMM:  17    -0.664339705088E+03   -0.17667E-01   -0.19210E-01 15210   0.586E-01    0.243E-01
RMM:  18    -0.664353206983E+03   -0.13502E-01   -0.14362E-01 15322   0.506E-01    0.272E-01
RMM:  19    -0.664364678225E+03   -0.11471E-01   -0.11616E-01 14947   0.452E-01    0.537E-01
RMM:  20    -0.664372125873E+03   -0.74476E-02   -0.84360E-02 14950   0.393E-01    0.522E-01
RMM:  21    -0.664377449330E+03   -0.53235E-02   -0.62772E-02 15200   0.346E-01    0.436E-01
RMM:  22    -0.664381878671E+03   -0.44293E-02   -0.47998E-02 15227   0.304E-01    0.468E-01
RMM:  23    -0.664385717730E+03   -0.38391E-02   -0.38715E-02 14811   0.272E-01    0.581E-01
RMM:  24    -0.664388005277E+03   -0.22875E-02   -0.28782E-02 15093   0.240E-01    0.530E-01
RMM:  25    -0.664389543015E+03   -0.15377E-02   -0.21690E-02 15175   0.215E-01    0.409E-01
RMM:  26    -0.664390822804E+03   -0.12798E-02   -0.16929E-02 15197   0.191E-01    0.291E-01
RMM:  27    -0.664391853632E+03   -0.10308E-02   -0.12593E-02 15135   0.166E-01    0.207E-01
RMM:  28    -0.664392788212E+03   -0.93458E-03   -0.94572E-03 14756   0.149E-01    0.279E-01
RMM:  29    -0.664393459532E+03   -0.67132E-03   -0.77889E-03 14420   0.132E-01    0.261E-01
RMM:  30    -0.664393972987E+03   -0.51345E-03   -0.59347E-03 14515   0.120E-01    0.255E-01
RMM:  31    -0.664394336458E+03   -0.36347E-03   -0.48080E-03 14462   0.109E-01    0.206E-01
RMM:  32    -0.664394579092E+03   -0.24263E-03   -0.41369E-03 14749   0.109E-01    0.216E-02
RMM:  33    -0.664394866574E+03   -0.28748E-03   -0.29819E-03 14550   0.874E-02    0.551E-02
WARNING in EDDRMM: call to ZHEGV failed, returncode =   8  4      4
RMM:  34    -0.664395052738E+03   -0.18616E-03   -0.20633E-03 14060   0.761E-02    0.445E-02
RMM:  35    -0.664395214207E+03   -0.16147E-03   -0.17679E-03 13623   0.688E-02    0.382E-02
RMM:  36    -0.664395341570E+03   -0.12736E-03   -0.13749E-03 13464   0.631E-02    0.310E-02
RMM:  37    -0.664395448088E+03   -0.10652E-03   -0.11764E-03 13233   0.584E-02    0.211E-02
RMM:  38    -0.664395536053E+03   -0.87965E-04   -0.95523E-04 12987   0.537E-02    0.196E-02
RMM:  39    -0.664395606171E+03   -0.70118E-04   -0.82739E-04 12843   0.507E-02    0.119E-02
WARNING in EDDRMM: call to ZHEGV failed, returncode =   8  4      4
RMM:  40    -0.664395667184E+03   -0.61013E-04   -0.64789E-04 12340   0.471E-02    0.142E-02
RMM:  41    -0.664395722230E+03   -0.55046E-04   -0.61565E-04 12294   0.438E-02    0.926E-03
RMM:  42    -0.664395765826E+03   -0.43596E-04   -0.45902E-04 11932   0.402E-02    0.978E-03
WARNING in EDDRMM: call to ZHEGV failed, returncode =   6  3      4
RMM:  43    -0.664395805719E+03   -0.39893E-04   -0.42335E-04 11729   0.376E-02    0.132E-02
RMM:  44    -0.664395836829E+03   -0.31110E-04   -0.33863E-04 11438   0.349E-02    0.825E-03
RMM:  45    -0.664395865701E+03   -0.28871E-04   -0.30599E-04 11312   0.327E-02    0.131E-02
RMM:  46    -0.664395887365E+03   -0.21664E-04   -0.24889E-04 10898   0.310E-02    0.800E-03
RMM:  47    -0.664395907743E+03   -0.20378E-04   -0.22700E-04 10684   0.294E-02    0.957E-03
RMM:  48    -0.664395925082E+03   -0.17340E-04   -0.19436E-04 10369   0.280E-02    0.638E-03
RMM:  49    -0.664395940674E+03   -0.15592E-04   -0.17772E-04 10080   0.266E-02    0.881E-03
RMM:  50    -0.664395954617E+03   -0.13943E-04   -0.15779E-04  9883   0.257E-02    0.591E-03
RMM:  51    -0.664395966611E+03   -0.11994E-04   -0.13962E-04  9383   0.245E-02    0.913E-03
RMM:  52    -0.664395977414E+03   -0.10803E-04   -0.12716E-04  9231   0.237E-02    0.738E-03
RMM:  53    -0.664395987058E+03   -0.96441E-05   -0.11478E-04  8749   0.229E-02    0.105E-02
RMM:  54    -0.664395995766E+03   -0.87076E-05   -0.10405E-04  8472   0.220E-02    0.959E-03
RMM:  55    -0.664396003807E+03   -0.80418E-05   -0.97187E-05  8268   0.219E-02
   1 F= -.66439600E+03 E0= -.66434690E+03  d E =-.664396E+03
 curvature:   0.00 expect dE= 0.000E+00 dE for cont linesearch  0.000E+00
 trial: gam= 0.00000 g(F)=  0.234E-03 g(S)=  0.445E-04 ort = 0.000E+00 (trialstep = 0.100E+01)
 search vector abs. value=  0.278E-03
 bond charge predicted
       N       E                     dE             d eps       ncg     rms          rms(c)
DAV:   1    -0.664395632761E+03    0.36300E-03   -0.44392E-02  9408   0.515E-01    0.685E-02
RMM:   2    -0.664396038489E+03   -0.40573E-03   -0.49618E-03 11893   0.170E-01    0.351E-02
RMM:   3    -0.664396113449E+03   -0.74961E-04   -0.97138E-04 13111   0.718E-02    0.262E-02
RMM:   4    -0.664396117976E+03   -0.45268E-05   -0.16167E-04 11428   0.303E-02    0.182E-02
RMM:   5    -0.664396117349E+03    0.62779E-06   -0.63781E-05  9453   0.181E-02
   2 F= -.66439612E+03 E0= -.66434710E+03  d E =-.113541E-03
 trial-energy change:   -0.000114  1 .order   -0.000089   -0.000278    0.000100
 step:   0.7360(harm=  0.7360)  dis= 0.00081  next Energy=  -664.396106 (dE=-0.102E-03)
 bond charge predicted
       N       E                     dE             d eps       ncg     rms          rms(c)
DAV:   1    -0.664396126298E+03   -0.83213E-05   -0.34798E-03 11088   0.141E-01    0.156E-02
RMM:   2    -0.664396154288E+03   -0.27990E-04   -0.32122E-04 10512   0.456E-02    0.114E-02
RMM:   3    -0.664396157779E+03   -0.34919E-05   -0.61121E-05  7015   0.235E-02
   3 F= -.66439616E+03 E0= -.66434713E+03  d E =-.153972E-03
 curvature:  -0.37 expect dE=-0.431E-04 dE for cont linesearch -0.946E-06
 ZBRENT: interpolating
 opt :   0.6715  next Energy=  -664.396159 (dE=-0.155E-03)
 bond charge predicted
       N       E                     dE             d eps       ncg     rms          rms(c)
DAV:   1    -0.664396160904E+03   -0.66161E-05   -0.22626E-04 12600   0.351E-02    0.696E-03
RMM:   2    -0.664396161929E+03   -0.10248E-05   -0.18594E-05  5592   0.109E-02
   4 F= -.66439616E+03 E0= -.66434712E+03  d E =-.158121E-03
 curvature:  -0.34 expect dE=-0.367E-04 dE for cont linesearch -0.172E-05
 ZBRENT: bisectioning
 opt :   0.3357  next Energy=  -664.396184 (dE=-0.180E-03)
 bond charge predicted
       N       E                     dE             d eps       ncg     rms          rms(c)
DAV:   1    -0.664396122424E+03    0.38480E-04   -0.50391E-03  9912   0.173E-01    0.213E-02
RMM:   2    -0.664396162555E+03   -0.40131E-04   -0.50711E-04 10991   0.571E-02    0.122E-02
RMM:   3    -0.664396171118E+03   -0.85633E-05   -0.10542E-04  7952   0.262E-02    0.121E-02
RMM:   4    -0.664396168661E+03    0.24569E-05   -0.13658E-05  5490   0.170E-02
   5 F= -.66439617E+03 E0= -.66434710E+03  d E =-.164854E-03
 curvature:  -4.35 expect dE=-0.361E-03 dE for cont linesearch -0.237E-04
 ZBRENT: interpolating
 opt :   0.5061  next Energy=  -664.396165 (dE=-0.161E-03)
 bond charge predicted
       N       E                     dE             d eps       ncg     rms          rms(c)
DAV:   1    -0.664396157099E+03    0.14019E-04   -0.13296E-03  9968   0.897E-02    0.110E-02
RMM:   2    -0.664396168915E+03   -0.11816E-04   -0.13745E-04  7968   0.284E-02    0.741E-03
RMM:   3    -0.664396169333E+03   -0.41827E-06   -0.19327E-05  5548   0.209E-02
   6 F= -.66439617E+03 E0= -.66434711E+03  d E =-.165526E-03
 curvature:  -0.57 expect dE=-0.824E-04 dE for cont linesearch -0.770E-05
 ZBRENT: interpolating
 opt :   0.4020  next Energy=  -664.396170 (dE=-0.166E-03)
 bond charge predicted
       N       E                     dE             d eps       ncg     rms          rms(c)
DAV:   1    -0.664396165607E+03    0.33081E-05   -0.45547E-04 10416   0.540E-02    0.619E-03
RMM:   2    -0.664396169173E+03   -0.35662E-05   -0.45982E-05  5999   0.162E-02
   7 F= -.66439617E+03 E0= -.66434711E+03  d E =-.165366E-03
 curvature:  -0.10 expect dE=-0.804E-05 dE for cont linesearch -0.170E-05
 ZBRENT: interpolating
 opt :   0.4576  next Energy=  -664.396171 (dE=-0.167E-03)
 bond charge predicted
       N       E                     dE             d eps       ncg     rms          rms(c)
DAV:   1    -0.664396169764E+03   -0.41568E-05   -0.12554E-04 10444   0.312E-02    0.436E-03
RMM:   2    -0.664396171231E+03   -0.14673E-05   -0.11574E-05  5158   0.759E-03
   8 F= -.66439617E+03 E0= -.66434712E+03  d E =-.167424E-03
 curvature:  -0.08 expect dE=-0.994E-05 dE for cont linesearch -0.518E-06
 ZBRENT: bisectioning
 opt :   0.4298  next Energy=  -664.396172 (dE=-0.168E-03)
 bond charge predicted
       N       E                     dE             d eps       ncg     rms          rms(c)
DAV:   1    -0.664396169606E+03    0.15712E-06   -0.32864E-05  8372   0.155E-02    0.170E-03
RMM:   2    -0.664396169911E+03   -0.30411E-06   -0.35090E-06  4654   0.643E-03
   9 F= -.66439617E+03 E0= -.66434711E+03  d E =-.166103E-03
 curvature:  -0.16 expect dE=-0.146E-04 dE for cont linesearch -0.360E-06
 ZBRENT: interpolating
 opt :   0.4403  next Energy=  -664.396170 (dE=-0.166E-03)
 bond charge predicted
       N       E                     dE             d eps       ncg     rms          rms(c)
DAV:   1    -0.664396169816E+03   -0.20979E-06   -0.33131E-06  6160   0.618E-03    0.107E-03
RMM:   2    -0.664396169896E+03   -0.80116E-07   -0.95669E-07  4451   0.386E-03
  10 F= -.66439617E+03 E0= -.66434711E+03  d E =-.166089E-03
 curvature:  -0.06 expect dE=-0.628E-05 dE for cont linesearch -0.211E-06
 ZBRENT: interpolating
 opt :   0.4344  next Energy=  -664.396170 (dE=-0.166E-03)
 bond charge predicted
       N       E                     dE             d eps       ncg     rms          rms(c)
DAV:   1    -0.664396169938E+03   -0.12140E-06   -0.71517E-07  5488   0.276E-03    0.548E-04
RMM:   2    -0.664396169946E+03   -0.82073E-08   -0.14498E-07  3634   0.179E-03
  11 F= -.66439617E+03 E0= -.66434711E+03  d E =-.166139E-03
 curvature:  -0.02 expect dE=-0.145E-05 dE for cont linesearch -0.423E-08
 trial: gam= 0.30020 g(F)=  0.719E-04 g(S)=  0.203E-04 ort = 0.865E-05 (trialstep = 0.887E+00)
 search vector abs. value=  0.123E-03
 bond charge predicted
       N       E                     dE             d eps       ncg     rms          rms(c)
DAV:   1    -0.664396164019E+03    0.59184E-05   -0.13445E-02  9408   0.278E-01    0.437E-02
RMM:   2    -0.664396210084E+03   -0.46065E-04   -0.98713E-04 12687   0.873E-02    0.233E-02
RMM:   3    -0.664396222592E+03   -0.12508E-04   -0.26581E-04 12280   0.383E-02    0.179E-02
RMM:   4    -0.664396216202E+03    0.63897E-05   -0.44345E-05  6840   0.183E-02
  12 F= -.66439622E+03 E0= -.66434714E+03  d E =-.462566E-04
 trial-energy change:   -0.000046  1 .order   -0.000039   -0.000084    0.000007
 step:   0.8198(harm=  0.8198)  dis= 0.00036  next Energy=  -664.396209 (dE=-0.389E-04)
 reached required accuracy - stopping structural energy minimisation
