<?xml version="1.0" encoding="ISO-8859-1"?>
<modeling>
 <generator>
  <i name="program" type="string">vasp </i>
  <i name="version" type="string">6.4.3  </i>
  <i name="subversion" type="string">19Mar24 (build Sep 18 2024 11:30:23) complex                          parallel </i>
  <i name="platform" type="string">LinuxIFC </i>
  <i name="date" type="string">2026 07 03 </i>
  <i name="time" type="string">20:09:15 </i>
 </generator>
 <incar>
  <i type="string" name="SYSTEM">HECN</i>
  <i type="int" name="ISTART">     0</i>
  <i type="string" name="PREC">Normal</i>
  <i type="string" name="ALGO">Fast</i>
  <i type="int" name="ICHARG">     2</i>
  <i type="int" name="NELM">    60</i>
  <i type="int" name="IBRION">     2</i>
  <i name="EDIFF">      0.00001000</i>
  <i name="EDIFFG">     -0.01000000</i>
  <i type="int" name="NSW">   100</i>
  <i type="int" name="ISIF">     3</i>
  <i name="ENCUT">    400.00000000</i>
  <i name="POTIM">      0.50000000</i>
  <i type="logical" name="LREAL"> F  </i>
  <i type="int" name="ISMEAR">     0</i>
  <i name="SIGMA">      0.10000000</i>
  <i type="logical" name="LWAVE"> F  </i>
  <i type="logical" name="LCHARG"> F  </i>
 </incar>
 <primitive_cell>
  <structure name="primitive_cell" >
   <crystal>
    <varray name="basis" >
     <v>       9.03972867      -0.00879691       0.00953501 </v>
     <v>      -0.00313273       9.06033028       0.00116777 </v>
     <v>       0.04202810      -0.01453105       9.01823866 </v>
    </varray>
    <i name="volume">    738.61642026 </i>
    <varray name="rec_basis" >
     <v>       0.11062337       0.00003832      -0.00051548 </v>
     <v>       0.00010722       0.11037127       0.00017734 </v>
     <v>      -0.00011698      -0.00001433       0.11088692 </v>
    </varray>
   </crystal>
   <varray name="positions" >
    <v>       0.99614388       0.99888572       0.99985940 </v>
    <v>       0.25018339       0.00044227       0.25139747 </v>
    <v>       0.24945717       0.49987491       0.25085290 </v>
    <v>       0.50064117       0.50190099       0.99899695 </v>
    <v>       0.50116791       0.24589837       0.74339623 </v>
    <v>       0.99770083       0.49993588       0.49972288 </v>
    <v>       0.49836155       0.75421905       0.74951196 </v>
    <v>       0.98742321       0.23107217       0.26824219 </v>
    <v>       0.76951960       0.73738255       0.99688472 </v>
    <v>       0.01948111       0.27592937       0.75096238 </v>
    <v>       0.76975127       0.25884506       0.47914419 </v>
    <v>       0.99122308       0.73279627       0.75415907 </v>
    <v>       0.26269579       0.48755306       0.74841205 </v>
    <v>       0.24425967       0.25226850       0.99487845 </v>
    <v>       0.50355731       0.25630059       0.25307916 </v>
    <v>       0.74861405       0.99891642       0.25429125 </v>
    <v>       0.75709901       0.25779145       0.99235448 </v>
    <v>       0.24219828       0.74767776       0.99708613 </v>
    <v>       0.24565374       0.25114586       0.50479551 </v>
    <v>       0.24430152       0.74938844       0.50442604 </v>
    <v>       0.24973189       0.24849423       0.25210920 </v>
    <v>       0.25632949       0.99993294       0.99481244 </v>
    <v>       0.00057065       0.25421950       0.01124952 </v>
    <v>       0.74967704       0.24885476       0.24227306 </v>
    <v>       0.74344934       0.00206690       0.99667574 </v>
    <v>       0.50259787       0.00080995       0.24902777 </v>
    <v>       0.99485014       0.49666995       0.24350717 </v>
    <v>       0.49658685       0.76079586       0.00355541 </v>
    <v>       0.99921959       0.00098963       0.74860118 </v>
    <v>       0.75754448       0.23755138       0.74904244 </v>
    <v>       0.74443672       0.00198612       0.50401924 </v>
    <v>       0.50177382       0.24081808       0.49540614 </v>
    <v>       0.50636333       0.00016967       0.75022397 </v>
    <v>       0.99583756       0.99762249       0.25416458 </v>
    <v>       0.50362357       0.24246183       0.00120418 </v>
    <v>       0.25099659       0.75108695       0.24947487 </v>
    <v>       0.24405054       0.49943566       0.99725344 </v>
    <v>       0.00000910       0.74602004       0.00150828 </v>
    <v>       0.74687140       0.74830530       0.24584709 </v>
    <v>       0.75718105       0.50182894       0.99954172 </v>
    <v>       0.50298611       0.50211111       0.25279214 </v>
    <v>       0.25335381       0.24497162       0.74942572 </v>
    <v>       0.25047022       0.99998366       0.50516186 </v>
    <v>       0.99503040       0.24856423       0.51402762 </v>
    <v>       0.24337191       0.75531753       0.75100381 </v>
    <v>       0.25251330       0.49964993       0.50369820 </v>
    <v>       0.99536418       0.75482110       0.50402525 </v>
    <v>       0.00256329       0.50124239       0.75361286 </v>
    <v>       0.74890626       0.75248222       0.74997241 </v>
    <v>       0.74676521       0.49555246       0.50073077 </v>
    <v>       0.49863831       0.75054242       0.49697020 </v>
    <v>       0.50173750       0.50003609       0.74580179 </v>
    <v>       0.50233875       0.00681899       0.00806253 </v>
    <v>       0.99873704       0.50480607       0.99932456 </v>
    <v>       0.50120491       0.74431592       0.25221235 </v>
    <v>       0.23028326       0.00369011       0.74627153 </v>
    <v>       0.49361013       0.98797346       0.49016878 </v>
    <v>       0.76506547       0.98786272       0.74491119 </v>
    <v>       0.99630345       0.76351619       0.25317624 </v>
    <v>       0.74599579       0.50219872       0.25316053 </v>
    <v>       0.99909008       0.00293078       0.49930503 </v>
    <v>       0.49991922       0.51265534       0.49948823 </v>
    <v>       0.74224606       0.51696646       0.74781963 </v>
    <v>       0.75237115       0.74264536       0.49692604 </v>
   </varray>
  </structure>
  <varray name="primitive_index" >
   <v type="int" >        1 </v>
   <v type="int" >        2 </v>
   <v type="int" >        3 </v>
   <v type="int" >        4 </v>
   <v type="int" >        5 </v>
   <v type="int" >        6 </v>
   <v type="int" >        7 </v>
   <v type="int" >        8 </v>
   <v type="int" >        9 </v>
   <v type="int" >       10 </v>
   <v type="int" >       11 </v>
   <v type="int" >       12 </v>
   <v type="int" >       13 </v>
   <v type="int" >       14 </v>
   <v type="int" >       15 </v>
   <v type="int" >       16 </v>
   <v type="int" >       17 </v>
   <v type="int" >       18 </v>
   <v type="int" >       19 </v>
   <v type="int" >       20 </v>
   <v type="int" >       21 </v>
   <v type="int" >       22 </v>
   <v type="int" >       23 </v>
   <v type="int" >       24 </v>
   <v type="int" >       25 </v>
   <v type="int" >       26 </v>
   <v type="int" >       27 </v>
   <v type="int" >       28 </v>
   <v type="int" >       29 </v>
   <v type="int" >       30 </v>
   <v type="int" >       31 </v>
   <v type="int" >       32 </v>
   <v type="int" >       33 </v>
   <v type="int" >       34 </v>
   <v type="int" >       35 </v>
   <v type="int" >       36 </v>
   <v type="int" >       37 </v>
   <v type="int" >       38 </v>
   <v type="int" >       39 </v>
   <v type="int" >       40 </v>
   <v type="int" >       41 </v>
   <v type="int" >       42 </v>
   <v type="int" >       43 </v>
   <v type="int" >       44 </v>
   <v type="int" >       45 </v>
   <v type="int" >       46 </v>
   <v type="int" >       47 </v>
   <v type="int" >       48 </v>
   <v type="int" >       49 </v>
   <v type="int" >       50 </v>
   <v type="int" >       51 </v>
   <v type="int" >       52 </v>
   <v type="int" >       53 </v>
   <v type="int" >       54 </v>
   <v type="int" >       55 </v>
   <v type="int" >       56 </v>
   <v type="int" >       57 </v>
   <v type="int" >       58 </v>
   <v type="int" >       59 </v>
   <v type="int" >       60 </v>
   <v type="int" >       61 </v>
   <v type="int" >       62 </v>
   <v type="int" >       63 </v>
   <v type="int" >       64 </v>
  </varray>
 </primitive_cell>
 <kpoints>
  <generation param="Gamma">
   <v type="int" name="divisions">       3        3        3 </v>
   <v name="usershift">      0.00000000       0.00000000       0.00000000 </v>
   <v name="genvec1">      0.33333333       0.00000000      -0.00000000 </v>
   <v name="genvec2">      0.00000000       0.33333333      -0.00000000 </v>
   <v name="genvec3">     -0.00000000       0.00000000       0.33333333 </v>
   <v name="shift">      0.00000000       0.00000000       0.00000000 </v>
  </generation>
  <varray name="kpointlist" >
   <v>       0.00000000       0.00000000       0.00000000 </v>
   <v>       0.33333333       0.00000000       0.00000000 </v>
   <v>       0.00000000       0.33333333       0.00000000 </v>
   <v>       0.33333333       0.33333333      -0.00000000 </v>
   <v>      -0.33333333       0.33333333      -0.00000000 </v>
   <v>       0.00000000      -0.00000000       0.33333333 </v>
   <v>       0.33333333      -0.00000000       0.33333333 </v>
   <v>      -0.33333333      -0.00000000       0.33333333 </v>
   <v>       0.00000000       0.33333333       0.33333333 </v>
   <v>       0.33333333       0.33333333       0.33333333 </v>
   <v>      -0.33333333       0.33333333       0.33333333 </v>
   <v>       0.00000000      -0.33333333       0.33333333 </v>
   <v>       0.33333333      -0.33333333       0.33333333 </v>
   <v>      -0.33333333      -0.33333333       0.33333333 </v>
  </varray>
  <varray name="weights" >
   <v>       0.03703704 </v>
   <v>       0.07407407 </v>
   <v>       0.07407407 </v>
   <v>       0.07407407 </v>
   <v>       0.07407407 </v>
   <v>       0.07407407 </v>
   <v>       0.07407407 </v>
   <v>       0.07407407 </v>
   <v>       0.07407407 </v>
   <v>       0.07407407 </v>
   <v>       0.07407407 </v>
   <v>       0.07407407 </v>
   <v>       0.07407407 </v>
   <v>       0.07407407 </v>
  </varray>
 </kpoints>
 <parameters>
  <separator name="general" >
   <i type="string" name="SYSTEM">HECN</i>
   <i type="logical" name="LCOMPAT"> F  </i>
  </separator>
  <separator name="electronic" >
   <i type="string" name="PREC">normal</i>
   <i name="ENMAX">    400.00000000</i>
   <i name="ENAUG">    644.87300000</i>
   <i name="EDIFF">      0.00001000</i>
   <i type="int" name="IALGO">    68</i>
   <i type="int" name="IWAVPR">    11</i>
   <i type="int" name="NBANDS">   308</i>
   <i type="int" name="NBANDSLOW">    -1</i>
   <i type="int" name="NBANDSHIGH">    -1</i>
   <i name="NELECT">    475.00000000</i>
   <i type="int" name="TURBO">     0</i>
   <i type="int" name="IRESTART">     0</i>
   <i type="int" name="NREBOOT">     0</i>
   <i type="int" name="NMIN">     0</i>
   <i name="EREF">      0.00000000</i>
   <separator name="electronic smearing" >
    <i type="int" name="ISMEAR">     0</i>
    <i name="SIGMA">      0.10000000</i>
    <i name="KSPACING">      0.50000000</i>
    <i type="logical" name="KGAMMA"> T  </i>
    <i type="logical" name="KBLOWUP"> T  </i>
   </separator>
   <separator name="electronic projectors" >
    <i type="logical" name="LREAL"> F  </i>
    <v name="ROPT">      0.00000000      0.00000000      0.00000000      0.00000000      0.00000000      0.00000000      0.00000000</v>
    <i type="int" name="LMAXPAW">  -100</i>
    <i type="int" name="LMAXMIX">     2</i>
    <i type="logical" name="NLSPLINE"> F  </i>
   </separator>
   <separator name="electronic startup" >
    <i type="int" name="ISTART">     0</i>
    <i type="int" name="ICHARG">     2</i>
    <i type="int" name="INIWAV">     1</i>
   </separator>
   <separator name="electronic spin" >
    <i type="int" name="ISPIN">     1</i>
    <i type="logical" name="LNONCOLLINEAR"> F  </i>
    <v name="MAGMOM">      1.00000000      1.00000000      1.00000000      1.00000000      1.00000000      1.00000000      1.00000000      1.00000000      1.00000000      1.00000000      1.00000000      1.00000000      1.00000000      1.00000000      1.00000000      1.00000000      1.00000000      1.00000000      1.00000000      1.00000000
      1.00000000      1.00000000      1.00000000      1.00000000      1.00000000      1.00000000      1.00000000      1.00000000      1.00000000      1.00000000      1.00000000      1.00000000      1.00000000      1.00000000      1.00000000      1.00000000      1.00000000      1.00000000      1.00000000      1.00000000
      1.00000000      1.00000000      1.00000000      1.00000000      1.00000000      1.00000000      1.00000000      1.00000000      1.00000000      1.00000000      1.00000000      1.00000000      1.00000000      1.00000000      1.00000000      1.00000000      1.00000000      1.00000000      1.00000000      1.00000000
      1.00000000      1.00000000      1.00000000      1.00000000</v>
    <i name="NUPDOWN">     -1.00000000</i>
    <i type="logical" name="LSORBIT"> F  </i>
    <v name="SAXIS">      0.00000000      0.00000000      1.00000000</v>
    <i type="logical" name="LSPIRAL"> F  </i>
    <v name="QSPIRAL">      0.00000000      0.00000000      0.00000000</v>
    <i type="logical" name="LZEROZ"> F  </i>
   </separator>
   <separator name="electronic exchange-correlation" >
    <i type="logical" name="LASPH"> F  </i>
   </separator>
   <separator name="electronic convergence" >
    <i type="int" name="NELM">    60</i>
    <i type="int" name="NELMDL">    -5</i>
    <i type="int" name="NELMIN">     2</i>
    <i name="ENINI">    400.00000000</i>
    <separator name="electronic convergence detail" >
     <i type="logical" name="LDIAG"> T  </i>
     <i type="logical" name="LSUBROT"> F  </i>
     <i name="WEIMIN">      0.00100000</i>
     <i name="EBREAK">      0.00000001</i>
     <i name="DEPER">      0.30000000</i>
     <i type="int" name="NRMM">     4</i>
     <i name="TIME">      0.40000000</i>
    </separator>
   </separator>
   <separator name="electronic mixer" >
    <i name="AMIX">      0.40000000</i>
    <i name="BMIX">      1.00000000</i>
    <i name="AMIN">      0.10000000</i>
    <i name="AMIX_MAG">      1.60000000</i>
    <i name="BMIX_MAG">      1.00000000</i>
    <separator name="electronic mixer details" >
     <i type="int" name="IMIX">     4</i>
     <i type="logical" name="MIXFIRST"> F  </i>
     <i type="int" name="MAXMIX">   -45</i>
     <i name="WC">    100.00000000</i>
     <i type="int" name="INIMIX">     1</i>
     <i type="int" name="MIXPRE">     1</i>
     <i type="int" name="MREMOVE">     5</i>
    </separator>
   </separator>
   <separator name="electronic dipolcorrection" >
    <i type="logical" name="LDIPOL"> F  </i>
    <i type="logical" name="LMONO"> F  </i>
    <i type="int" name="IDIPOL">     0</i>
    <i name="EPSILON">      1.00000000</i>
    <v name="DIPOL">   -100.00000000   -100.00000000   -100.00000000</v>
    <i name="EFIELD">      0.00000000</i>
    <i type="logical" name="LVACPOTAV"> F  </i>
   </separator>
  </separator>
  <separator name="grids" >
   <i type="int" name="NGX">    48</i>
   <i type="int" name="NGY">    48</i>
   <i type="int" name="NGZ">    48</i>
   <i type="int" name="NGXF">    96</i>
   <i type="int" name="NGYF">    96</i>
   <i type="int" name="NGZF">    96</i>
   <i type="logical" name="ADDGRID"> F  </i>
  </separator>
  <separator name="ionic" >
   <i type="int" name="NSW">   100</i>
   <i type="int" name="IBRION">     2</i>
   <i type="int" name="MDALGO">     0</i>
   <i type="int" name="ISIF">     3</i>
   <i name="PSTRESS">      0.00000000</i>
   <i name="EDIFFG">     -0.01000000</i>
   <i type="int" name="NFREE">     1</i>
   <i name="POTIM">      0.50000000</i>
   <i name="SMASS">     -3.00000000</i>
   <i name="SCALEE">      1.00000000</i>
  </separator>
  <separator name="ionic md" >
   <i name="TEBEG">      0.00010000</i>
   <i name="TEEND">      0.00010000</i>
   <i type="int" name="NBLOCK">     1</i>
   <i type="int" name="KBLOCK">   100</i>
   <i type="int" name="NPACO">   256</i>
   <i name="APACO">     10.00000000</i>
  </separator>
  <separator name="symmetry" >
   <i type="int" name="ISYM">     2</i>
   <i name="SYMPREC">      0.00001000</i>
  </separator>
  <separator name="dos" >
   <i type="int" name="LORBIT">     0</i>
   <v name="RWIGS">     -1.00000000     -1.00000000     -1.00000000     -1.00000000     -1.00000000     -1.00000000     -1.00000000</v>
   <i type="int" name="NEDOS">   301</i>
   <i name="EMIN">     10.00000000</i>
   <i name="EMAX">    -10.00000000</i>
   <i name="EFERMI">      0.00000000</i>
  </separator>
  <separator name="writing" >
   <i type="int" name="NWRITE">     2</i>
   <i type="logical" name="LWAVE"> F  </i>
   <i type="logical" name="LDOWNSAMPLE"> F  </i>
   <i type="logical" name="LCHARG"> F  </i>
   <i type="logical" name="LPARD"> F  </i>
   <i type="logical" name="LVTOT"> F  </i>
   <i type="logical" name="LVHAR"> F  </i>
   <i type="logical" name="LELF"> F  </i>
   <i type="logical" name="LOPTICS"> F  </i>
   <v name="STM">      0.00000000      0.00000000      0.00000000      0.00000000      0.00000000      0.00000000      0.00000000</v>
  </separator>
  <separator name="performance" >
   <i type="int" name="NPAR">    28</i>
   <i type="int" name="NSIM">     4</i>
   <i type="int" name="NBLK">    -1</i>
   <i type="logical" name="LPLANE"> T  </i>
   <i type="logical" name="LSCALAPACK"> T  </i>
   <i type="logical" name="LSCAAWARE"> F  </i>
   <i type="logical" name="LSCALU"> F  </i>
   <i type="logical" name="LASYNC"> F  </i>
   <i type="logical" name="LORBITALREAL"> F  </i>
  </separator>
  <separator name="miscellaneous" >
   <i type="int" name="IDIOT">     3</i>
   <i type="int" name="PHON_NSTRUCT">    -1</i>
   <i type="logical" name="LMUSIC"> F  </i>
   <v name="POMASS">     91.22400000     95.94000000    178.49000000     14.00100000     12.01100000    180.94800000     92.91000000</v>
   <v name="DARWINR">      0.00000000      0.00000000      0.00000000      0.00000000      0.00000000      0.00000000      0.00000000</v>
   <v name="DARWINV">      1.00000000      1.00000000      1.00000000      1.00000000      1.00000000      1.00000000      1.00000000</v>
   <i type="logical" name="LCORR"> T  </i>
  </separator>
  <i type="logical" name="GGA_COMPAT"> T  </i>
  <i type="logical" name="LBERRY"> F  </i>
  <i type="int" name="ICORELEVEL">     0</i>
  <i type="logical" name="LDAU"> F  </i>
  <i type="int" name="I_CONSTRAINED_M">     0</i>
  <separator name="electronic exchange-correlation" >
   <i type="string" name="GGA    ">PE</i>
   <i type="string" name="XC_C">1</i>
   <i type="int" name="VOSKOWN">     0</i>
   <i type="logical" name="LHFCALC"> F  </i>
   <i type="string" name="PRECFOCK"></i>
   <i type="logical" name="LSYMGRAD"> F  </i>
   <i type="logical" name="LHFONE"> F  </i>
   <i type="logical" name="LRHFCALC"> F  </i>
   <i type="logical" name="LTHOMAS"> F  </i>
   <i type="logical" name="LMODELHF"> F  </i>
   <i type="logical" name="LFOCKACE"> F  </i>
   <i name="ENCUT4O">     -1.00000000</i>
   <i type="int" name="EXXOEP">     0</i>
   <i type="int" name="FOURORBIT">     0</i>
   <i name="AEXX">      0.00000000</i>
   <i name="HFALPHA">      0.00000000</i>
   <i name="MCALPHA">      0.00000000</i>
   <i name="ALDAX">      1.00000000</i>
   <i name="AGGAX">      1.00000000</i>
   <i name="AMGGAX">      1.00000000</i>
   <i name="ALDAC">      1.00000000</i>
   <i name="AGGAC">      1.00000000</i>
   <i name="AMGGAC">      1.00000000</i>
   <i type="int" name="NKREDX">     1</i>
   <i type="int" name="NKREDY">     1</i>
   <i type="int" name="NKREDZ">     1</i>
   <i type="logical" name="SHIFTRED"> F  </i>
   <i type="logical" name="ODDONLY"> F  </i>
   <i type="logical" name="EVENONLY"> F  </i>
   <i type="int" name="LMAXFOCK">     0</i>
   <i type="int" name="NMAXFOCKAE">     0</i>
   <i type="logical" name="LFOCKAEDFT"> F  </i>
   <i name="HFSCREEN">      0.00000000</i>
   <i name="HFSCREENC">      0.00000000</i>
   <i type="int" name="NBANDSGWLOW">     0</i>
  </separator>
  <separator name="vdW DFT" >
   <i type="logical" name="LUSE_VDW"> F  </i>
   <i type="int" name="IVDW_NL">    -1</i>
   <i type="logical" name="LSPIN_VDW"> F  </i>
   <i name="ZAB_VDW">     -0.84910000</i>
   <i name="GAMMA_VDW">      1.39626340</i>
   <i name="ALPHA_VDW">      0.00000000</i>
   <i name="PARAM1">      0.12340000</i>
   <i name="PARAM2">      1.00000000</i>
   <i name="BPARAM">      6.30000000</i>
   <i name="CPARAM">      0.00930000</i>
  </separator>
  <separator name="model GW" >
   <i type="int" name="MODEL_GW">     0</i>
   <i name="MODEL_EPS0">      6.92452894</i>
   <i name="MODEL_ALPHA">      1.00000000</i>
  </separator>
  <separator name="linear response parameters" >
   <i type="logical" name="LEPSILON"> F  </i>
   <i type="logical" name="LRPA"> F  </i>
   <i type="logical" name="LNABLA"> F  </i>
   <i type="logical" name="LVEL"> F  </i>
   <i name="CSHIFT">      0.10000000</i>
   <i name="OMEGAMAX">     -1.00000000</i>
   <i name="DEG_THRESHOLD">      0.00200000</i>
   <i name="RTIME">     -0.10000000</i>
   <i name="WPLASMAI">      0.00000000</i>
   <v name="DFIELD">      0.00000000      0.00000000      0.00000000</v>
   <v name="WPLASMA">      0.00000000      0.00000000      0.00000000      0.00000000      0.00000000      0.00000000      0.00000000      0.00000000      0.00000000</v>
  </separator>
  <separator name="orbital magnetization" >
   <i type="logical" name="NUCIND"> F  </i>
   <v name="MAGPOS">      0.00000000      0.00000000      0.00000000</v>
   <i type="logical" name="LNICSALL"> T  </i>
   <i type="logical" name="ORBITALMAG"> F  </i>
   <i type="logical" name="LMAGBLOCH"> F  </i>
   <i type="logical" name="LCHIMAG"> F  </i>
   <i type="logical" name="LGAUGE"> T  </i>
   <i type="int" name="MAGATOM">     0</i>
   <v name="MAGDIPOL">      0.00000000      0.00000000      0.00000000</v>
   <v name="AVECCONST">      0.00000000      0.00000000      0.00000000</v>
  </separator>
  <separator name="response functions" >
   <i type="logical" name="LALL_IN_ONE"> F  </i>
   <i type="int" name="IALL_IN_ONE">    -1</i>
   <i type="int" name="NBANDS_WAVE">    -1</i>
   <i type="logical" name="LFINITE_TEMPERATURE"> F  </i>
   <i type="logical" name="LADDER"> F  </i>
   <i type="logical" name="LRPAFORCE"> F  </i>
   <i type="logical" name="LFXC"> F  </i>
   <i type="logical" name="LHARTREE"> T  </i>
   <i type="int" name="IBSE">     0</i>
   <v type="int" name="KPOINT">    -1     0     0     0</v>
   <i type="logical" name="LTCTC"> F  </i>
   <i type="logical" name="LTCTE"> F  </i>
   <i type="logical" name="LTETE"> F  </i>
   <i type="logical" name="LTRIPLET"> F  </i>
   <i type="logical" name="LFXCEPS"> F  </i>
   <i type="logical" name="LFXHEG"> F  </i>
   <i type="int" name="NATURALO">     2</i>
   <i type="logical" name="LHOLEGF"> F  </i>
   <i type="logical" name="L2ORDER"> F  </i>
   <i type="logical" name="LDMP1"> F  </i>
   <i type="logical" name="LMP2LT"> F  </i>
   <i type="logical" name="LSMP2LT"> F  </i>
   <i type="logical" name="LGWLF"> F  </i>
   <i name="ENCUTGW">     -1.60000002</i>
   <i name="ENCUTGWSOFT">     -1.60000002</i>
   <i name="ENCUTLF">     -1.00000000</i>
   <i type="logical" name="ESF_SPLINES"> F  </i>
   <i name="ESF_CONV">      0.01000000</i>
   <i type="int" name="ESF_NINTER">    15</i>
   <i type="int" name="LMAXMP2">    -1</i>
   <i name="SCISSOR">      0.00000000</i>
   <i type="int" name="NOMEGA">     0</i>
   <i type="int" name="NOMEGAR">     0</i>
   <i type="int" name="NBANDSGW">    -1</i>
   <i type="int" name="NBANDSO">    -1</i>
   <i type="int" name="NBANDSV">    -1</i>
   <i type="int" name="NELMGW">     1</i>
   <i type="int" name="NELMHF">     1</i>
   <i type="int" name="DIM">     3</i>
   <i type="int" name="IESPILON">     4</i>
   <i type="int" name="ANTIRES">     0</i>
   <i name="OMEGAMAX">    -30.00000000</i>
   <i name="OMEGAMIN">    -30.00000000</i>
   <i name="OMEGATL">   -200.00000000</i>
   <i type="int" name="OMEGAGRID">     0</i>
   <i name="CSHIFT">     -0.10000000</i>
   <i type="logical" name="LSELFENERGY"> F  </i>
   <i type="logical" name="LSPECTRAL"> F  </i>
   <i type="logical" name="LSPECTRALGW"> F  </i>
   <i type="logical" name="LSINGLES"> F  </i>
   <i type="logical" name="LFERMIGW"> F  </i>
   <i type="logical" name="ODDONLYGW"> F  </i>
   <i type="logical" name="EVENONLYGW"> F  </i>
   <i type="int" name="NKREDLFX">     1</i>
   <i type="int" name="NKREDLFY">     1</i>
   <i type="int" name="NKREDLFZ">     1</i>
   <i type="int" name="MAXMEM">  2800</i>
   <i type="int" name="TELESCOPE">     0</i>
   <i type="int" name="NTAUPAR">    -1</i>
   <i type="int" name="NOMEGAPAR">    -1</i>
   <i name="DAMP_NEWTON">      0.80000001</i>
   <i name="LAMBDA">      1.00000000</i>
  </separator>
  <separator name="External order field" >
   <i name="OFIELD_KAPPA">      0.00000000</i>
   <v name="OFIELD_K">      0.00000000      0.00000000      0.00000000</v>
   <i name="OFIELD_Q6_NEAR">      0.00000000</i>
   <i name="OFIELD_Q6_FAR">      0.00000000</i>
   <i name="OFIELD_A">      0.00000000</i>
  </separator>
  <separator name="optional k-points parameters" >
   <i type="int" name="KPOINTS_OPT_MODE">     1</i>
   <i type="logical" name="LKPOINTS_OPT"> F  </i>
  </separator>
  <separator name="solvation model" >
   <i type="logical" name="LSOL"> F  </i>
  </separator>
 </parameters>
 <atominfo>
  <atoms>      64 </atoms>
  <types>       7 </types>
  <array name="atoms" >
   <dimension dim="1">ion</dimension>
   <field type="string">element</field>
   <field type="int">atomtype</field>
   <set>
    <rc><c>Zr</c><c>   1</c></rc>
    <rc><c>Zr</c><c>   1</c></rc>
    <rc><c>Zr</c><c>   1</c></rc>
    <rc><c>Zr</c><c>   1</c></rc>
    <rc><c>Zr</c><c>   1</c></rc>
    <rc><c>Zr</c><c>   1</c></rc>
    <rc><c>Zr</c><c>   1</c></rc>
    <rc><c>Mo</c><c>   2</c></rc>
    <rc><c>Mo</c><c>   2</c></rc>
    <rc><c>Mo</c><c>   2</c></rc>
    <rc><c>Mo</c><c>   2</c></rc>
    <rc><c>Mo</c><c>   2</c></rc>
    <rc><c>Mo</c><c>   2</c></rc>
    <rc><c>Hf</c><c>   3</c></rc>
    <rc><c>Hf</c><c>   3</c></rc>
    <rc><c>Hf</c><c>   3</c></rc>
    <rc><c>Hf</c><c>   3</c></rc>
    <rc><c>Hf</c><c>   3</c></rc>
    <rc><c>Hf</c><c>   3</c></rc>
    <rc><c>Hf</c><c>   3</c></rc>
    <rc><c>N </c><c>   4</c></rc>
    <rc><c>N </c><c>   4</c></rc>
    <rc><c>N </c><c>   4</c></rc>
    <rc><c>N </c><c>   4</c></rc>
    <rc><c>N </c><c>   4</c></rc>
    <rc><c>N </c><c>   4</c></rc>
    <rc><c>N </c><c>   4</c></rc>
    <rc><c>N </c><c>   4</c></rc>
    <rc><c>N </c><c>   4</c></rc>
    <rc><c>N </c><c>   4</c></rc>
    <rc><c>N </c><c>   4</c></rc>
    <rc><c>N </c><c>   4</c></rc>
    <rc><c>N </c><c>   4</c></rc>
    <rc><c>C </c><c>   5</c></rc>
    <rc><c>C </c><c>   5</c></rc>
    <rc><c>C </c><c>   5</c></rc>
    <rc><c>C </c><c>   5</c></rc>
    <rc><c>C </c><c>   5</c></rc>
    <rc><c>C </c><c>   5</c></rc>
    <rc><c>C </c><c>   5</c></rc>
    <rc><c>C </c><c>   5</c></rc>
    <rc><c>C </c><c>   5</c></rc>
    <rc><c>C </c><c>   5</c></rc>
    <rc><c>C </c><c>   5</c></rc>
    <rc><c>C </c><c>   5</c></rc>
    <rc><c>C </c><c>   5</c></rc>
    <rc><c>C </c><c>   5</c></rc>
    <rc><c>C </c><c>   5</c></rc>
    <rc><c>C </c><c>   5</c></rc>
    <rc><c>C </c><c>   5</c></rc>
    <rc><c>C </c><c>   5</c></rc>
    <rc><c>C </c><c>   5</c></rc>
    <rc><c>Ta</c><c>   6</c></rc>
    <rc><c>Ta</c><c>   6</c></rc>
    <rc><c>Ta</c><c>   6</c></rc>
    <rc><c>Ta</c><c>   6</c></rc>
    <rc><c>Ta</c><c>   6</c></rc>
    <rc><c>Ta</c><c>   6</c></rc>
    <rc><c>Nb</c><c>   7</c></rc>
    <rc><c>Nb</c><c>   7</c></rc>
    <rc><c>Nb</c><c>   7</c></rc>
    <rc><c>Nb</c><c>   7</c></rc>
    <rc><c>Nb</c><c>   7</c></rc>
    <rc><c>Nb</c><c>   7</c></rc>
   </set>
  </array>
  <array name="atomtypes" >
   <dimension dim="1">type</dimension>
   <field type="int">atomspertype</field>
   <field type="string">element</field>
   <field>mass</field>
   <field>valence</field>
   <field type="string">pseudopotential</field>
   <set>
    <rc><c>   7</c><c>Zr</c><c>     91.22400000</c><c>     12.00000000</c><c> PAW_PBE Zr_sv 07Sep2000                </c></rc>
    <rc><c>   6</c><c>Mo</c><c>     95.94000000</c><c>      6.00000000</c><c> PAW_PBE Mo 08Apr2002                   </c></rc>
    <rc><c>   7</c><c>Hf</c><c>    178.49000000</c><c>     10.00000000</c><c> PAW_PBE Hf_pv 06Sep2000                </c></rc>
    <rc><c>  13</c><c>N </c><c>     14.00100000</c><c>      5.00000000</c><c> PAW_PBE N 08Apr2002                    </c></rc>
    <rc><c>  19</c><c>C </c><c>     12.01100000</c><c>      4.00000000</c><c> PAW_PBE C 08Apr2002                    </c></rc>
    <rc><c>   6</c><c>Ta</c><c>    180.94800000</c><c>     11.00000000</c><c> PAW_PBE Ta_pv 07Sep2000                </c></rc>
    <rc><c>   6</c><c>Nb</c><c>     92.91000000</c><c>     13.00000000</c><c> PAW_PBE Nb_sv 17Jan2003                </c></rc>
   </set>
  </array>
 </atominfo>
 <structure name="initialpos" >
  <crystal>
   <varray name="basis" >
    <v>       9.03972867      -0.00879691       0.00953501 </v>
    <v>      -0.00313273       9.06033028       0.00116777 </v>
    <v>       0.04202810      -0.01453105       9.01823866 </v>
   </varray>
   <i name="volume">    738.61642026 </i>
   <varray name="rec_basis" >
    <v>       0.11062337       0.00003832      -0.00051548 </v>
    <v>       0.00010722       0.11037127       0.00017734 </v>
    <v>      -0.00011698      -0.00001433       0.11088692 </v>
   </varray>
  </crystal>
  <varray name="positions" >
   <v>       0.99614388       0.99888572       0.99985940 </v>
   <v>       0.25018339       0.00044227       0.25139747 </v>
   <v>       0.24945717       0.49987491       0.25085290 </v>
   <v>       0.50064117       0.50190099       0.99899695 </v>
   <v>       0.50116791       0.24589837       0.74339623 </v>
   <v>       0.99770083       0.49993588       0.49972288 </v>
   <v>       0.49836155       0.75421905       0.74951196 </v>
   <v>       0.98742321       0.23107217       0.26824219 </v>
   <v>       0.76951960       0.73738255       0.99688472 </v>
   <v>       0.01948111       0.27592937       0.75096238 </v>
   <v>       0.76975127       0.25884506       0.47914419 </v>
   <v>       0.99122308       0.73279627       0.75415907 </v>
   <v>       0.26269579       0.48755306       0.74841205 </v>
   <v>       0.24425967       0.25226850       0.99487845 </v>
   <v>       0.50355731       0.25630059       0.25307916 </v>
   <v>       0.74861405       0.99891642       0.25429125 </v>
   <v>       0.75709901       0.25779145       0.99235448 </v>
   <v>       0.24219828       0.74767776       0.99708613 </v>
   <v>       0.24565374       0.25114586       0.50479551 </v>
   <v>       0.24430152       0.74938844       0.50442604 </v>
   <v>       0.24973189       0.24849423       0.25210920 </v>
   <v>       0.25632949       0.99993294       0.99481244 </v>
   <v>       0.00057065       0.25421950       0.01124952 </v>
   <v>       0.74967704       0.24885476       0.24227306 </v>
   <v>       0.74344934       0.00206690       0.99667574 </v>
   <v>       0.50259787       0.00080995       0.24902777 </v>
   <v>       0.99485014       0.49666995       0.24350717 </v>
   <v>       0.49658685       0.76079586       0.00355541 </v>
   <v>       0.99921959       0.00098963       0.74860118 </v>
   <v>       0.75754448       0.23755138       0.74904244 </v>
   <v>       0.74443672       0.00198612       0.50401924 </v>
   <v>       0.50177382       0.24081808       0.49540614 </v>
   <v>       0.50636333       0.00016967       0.75022397 </v>
   <v>       0.99583756       0.99762249       0.25416458 </v>
   <v>       0.50362357       0.24246183       0.00120418 </v>
   <v>       0.25099659       0.75108695       0.24947487 </v>
   <v>       0.24405054       0.49943566       0.99725344 </v>
   <v>       0.00000910       0.74602004       0.00150828 </v>
   <v>       0.74687140       0.74830530       0.24584709 </v>
   <v>       0.75718105       0.50182894       0.99954172 </v>
   <v>       0.50298611       0.50211111       0.25279214 </v>
   <v>       0.25335381       0.24497162       0.74942572 </v>
   <v>       0.25047022       0.99998366       0.50516186 </v>
   <v>       0.99503040       0.24856423       0.51402762 </v>
   <v>       0.24337191       0.75531753       0.75100381 </v>
   <v>       0.25251330       0.49964993       0.50369820 </v>
   <v>       0.99536418       0.75482110       0.50402525 </v>
   <v>       0.00256329       0.50124239       0.75361286 </v>
   <v>       0.74890626       0.75248222       0.74997241 </v>
   <v>       0.74676521       0.49555246       0.50073077 </v>
   <v>       0.49863831       0.75054242       0.49697020 </v>
   <v>       0.50173750       0.50003609       0.74580179 </v>
   <v>       0.50233875       0.00681899       0.00806253 </v>
   <v>       0.99873704       0.50480607       0.99932456 </v>
   <v>       0.50120491       0.74431592       0.25221235 </v>
   <v>       0.23028326       0.00369011       0.74627153 </v>
   <v>       0.49361013       0.98797346       0.49016878 </v>
   <v>       0.76506547       0.98786272       0.74491119 </v>
   <v>       0.99630345       0.76351619       0.25317624 </v>
   <v>       0.74599579       0.50219872       0.25316053 </v>
   <v>       0.99909008       0.00293078       0.49930503 </v>
   <v>       0.49991922       0.51265534       0.49948823 </v>
   <v>       0.74224606       0.51696646       0.74781963 </v>
   <v>       0.75237115       0.74264536       0.49692604 </v>
  </varray>
 </structure>
 <calculation>
  <scstep>
   <time name="dav">   21.05   21.22</time>
   <time name="total">   21.08   21.27</time>
   <energy>
    <i name="alphaZ">   3932.95660159 </i>
    <i name="ewald"> -35562.01667136 </i>
    <i name="hartreedc">  -5408.54534221 </i>
    <i name="XCdc">   1147.66370079 </i>
    <i name="pawpsdc">  22733.95488290 </i>
    <i name="pawaedc"> -21916.34231637 </i>
    <i name="eentropy">     -0.04914054 </i>
    <i name="bandstr">    605.33556163 </i>
    <i name="atom">  38145.54165741 </i>
    <i name="e_fr_energy">   3678.49893385 </i>
    <i name="e_wo_entrp">   3678.54807439 </i>
    <i name="e_0_energy">   3678.52350412 </i>
   </energy>
  </scstep>
  <scstep>
   <time name="dav">   23.47   24.11</time>
   <time name="total">   23.47   24.11</time>
   <energy>
    <i name="e_fr_energy">   -278.34403173 </i>
    <i name="e_wo_entrp">   -278.25863879 </i>
    <i name="e_0_energy">   -278.30133526 </i>
   </energy>
  </scstep>
  <scstep>
   <time name="dav">   32.01   32.38</time>
   <time name="total">   32.01   32.38</time>
   <energy>
    <i name="e_fr_energy">   -750.15886763 </i>
    <i name="e_wo_entrp">   -750.07416450 </i>
    <i name="e_0_energy">   -750.11651606 </i>
   </energy>
  </scstep>
  <scstep>
   <time name="dav">   32.60   32.99</time>
   <time name="total">   32.60   32.99</time>
   <energy>
    <i name="e_fr_energy">   -778.83568043 </i>
    <i name="e_wo_entrp">   -778.74795625 </i>
    <i name="e_0_energy">   -778.79181834 </i>
   </energy>
  </scstep>
  <scstep>
   <time name="dav">   34.11   34.48</time>
   <time name="total">   34.28   34.66</time>
   <energy>
    <i name="e_fr_energy">   -781.69829624 </i>
    <i name="e_wo_entrp">   -781.61070080 </i>
    <i name="e_0_energy">   -781.65449852 </i>
   </energy>
  </scstep>
  <scstep>
   <time name="diag">    1.51    1.53</time>
   <time name="diis">   18.36   18.65</time>
   <time name="orth">    0.35    0.35</time>
   <time name="total">   20.42   20.74</time>
   <energy>
    <i name="e_fr_energy">   -667.42165723 </i>
    <i name="e_wo_entrp">   -667.32010264 </i>
    <i name="e_0_energy">   -667.37087993 </i>
   </energy>
  </scstep>
  <scstep>
   <time name="diag">    1.49    1.51</time>
   <time name="diis">   21.69   21.98</time>
   <time name="orth">    0.35    0.35</time>
   <time name="total">   23.72   24.02</time>
   <energy>
    <i name="e_fr_energy">   -666.83061098 </i>
    <i name="e_wo_entrp">   -666.73058085 </i>
    <i name="e_0_energy">   -666.78059591 </i>
   </energy>
  </scstep>
  <scstep>
   <time name="diag">    1.42    1.43</time>
   <time name="diis">   22.81   23.05</time>
   <time name="orth">    0.35    0.36</time>
   <time name="total">   24.78   25.03</time>
   <energy>
    <i name="e_fr_energy">   -664.29571884 </i>
    <i name="e_wo_entrp">   -664.19351900 </i>
    <i name="e_0_energy">   -664.24461892 </i>
   </energy>
  </scstep>
  <scstep>
   <time name="diag">    1.36    1.37</time>
   <time name="diis">   22.26   22.52</time>
   <time name="orth">    0.35    0.35</time>
   <time name="total">   24.15   24.43</time>
   <energy>
    <i name="e_fr_energy">   -664.05741678 </i>
    <i name="e_wo_entrp">   -663.96290448 </i>
    <i name="e_0_energy">   -664.01016063 </i>
   </energy>
  </scstep>
  <scstep>
   <time name="diag">    1.38    1.40</time>
   <time name="diis">   23.35   23.62</time>
   <time name="orth">    0.35    0.36</time>
   <time name="total">   25.28   25.57</time>
   <energy>
    <i name="e_fr_energy">   -664.00838294 </i>
    <i name="e_wo_entrp">   -663.91054371 </i>
    <i name="e_0_energy">   -663.95946332 </i>
   </energy>
  </scstep>
  <scstep>
   <time name="diag">    1.39    1.41</time>
   <time name="diis">   23.69   24.04</time>
   <time name="orth">    0.35    0.36</time>
   <time name="total">   25.63   26.00</time>
   <energy>
    <i name="e_fr_energy">   -664.07490323 </i>
    <i name="e_wo_entrp">   -663.97615962 </i>
    <i name="e_0_energy">   -664.02553143 </i>
   </energy>
  </scstep>
  <scstep>
   <time name="diag">    1.36    1.38</time>
   <time name="diis">   24.22   24.51</time>
   <time name="orth">    0.37    0.37</time>
   <time name="total">   26.13   26.45</time>
   <energy>
    <i name="e_fr_energy">   -664.15553607 </i>
    <i name="e_wo_entrp">   -664.05656341 </i>
    <i name="e_0_energy">   -664.10604974 </i>
   </energy>
  </scstep>
  <scstep>
   <time name="diag">    1.39    1.41</time>
   <time name="diis">   24.78   25.11</time>
   <time name="orth">    0.37    0.37</time>
   <time name="total">   26.74   27.08</time>
   <energy>
    <i name="e_fr_energy">   -664.23205996 </i>
    <i name="e_wo_entrp">   -664.13328128 </i>
    <i name="e_0_energy">   -664.18267062 </i>
   </energy>
  </scstep>
  <scstep>
   <time name="diag">    1.44    1.46</time>
   <time name="diis">   24.34   24.60</time>
   <time name="orth">    0.37    0.38</time>
   <time name="total">   26.37   26.66</time>
   <energy>
    <i name="e_fr_energy">   -664.27636368 </i>
    <i name="e_wo_entrp">   -664.17759297 </i>
    <i name="e_0_energy">   -664.22697832 </i>
   </energy>
  </scstep>
  <scstep>
   <time name="diag">    1.45    1.46</time>
   <time name="diis">   23.79   24.05</time>
   <time name="orth">    0.40    0.40</time>
   <time name="total">   25.84   26.11</time>
   <energy>
    <i name="e_fr_energy">   -664.29749090 </i>
    <i name="e_wo_entrp">   -664.19928437 </i>
    <i name="e_0_energy">   -664.24838763 </i>
   </energy>
  </scstep>
  <scstep>
   <time name="diag">    1.68    1.71</time>
   <time name="diis">   25.21   25.46</time>
   <time name="orth">    0.36    0.36</time>
   <time name="total">   27.44   27.73</time>
   <energy>
    <i name="e_fr_energy">   -664.32203766 </i>
    <i name="e_wo_entrp">   -664.22395931 </i>
    <i name="e_0_energy">   -664.27299849 </i>
   </energy>
  </scstep>
  <scstep>
   <time name="diag">    1.38    1.40</time>
   <time name="diis">   25.47   25.74</time>
   <time name="orth">    0.40    0.41</time>
   <time name="total">   27.44   27.74</time>
   <energy>
    <i name="e_fr_energy">   -664.33970509 </i>
    <i name="e_wo_entrp">   -664.24136727 </i>
    <i name="e_0_energy">   -664.29053618 </i>
   </energy>
  </scstep>
  <scstep>
   <time name="diag">    1.45    1.47</time>
   <time name="diis">   25.41   25.84</time>
   <time name="orth">    0.36    0.36</time>
   <time name="total">   27.41   27.86</time>
   <energy>
    <i name="e_fr_energy">   -664.35320698 </i>
    <i name="e_wo_entrp">   -664.25488891 </i>
    <i name="e_0_energy">   -664.30404795 </i>
   </energy>
  </scstep>
  <scstep>
   <time name="diag">    1.39    1.40</time>
   <time name="diis">   25.18   25.44</time>
   <time name="orth">    0.41    0.41</time>
   <time name="total">   27.17   27.45</time>
   <energy>
    <i name="e_fr_energy">   -664.36467822 </i>
    <i name="e_wo_entrp">   -664.26628080 </i>
    <i name="e_0_energy">   -664.31547951 </i>
   </energy>
  </scstep>
  <scstep>
   <time name="diag">    1.39    1.41</time>
   <time name="diis">   25.18   25.55</time>
   <time name="orth">    0.40    0.41</time>
   <time name="total">   27.16   27.56</time>
   <energy>
    <i name="e_fr_energy">   -664.37212587 </i>
    <i name="e_wo_entrp">   -664.27368734 </i>
    <i name="e_0_energy">   -664.32290661 </i>
   </energy>
  </scstep>
  <scstep>
   <time name="diag">    1.44    1.45</time>
   <time name="diis">   25.54   25.88</time>
   <time name="orth">    0.36    0.36</time>
   <time name="total">   27.58   27.94</time>
   <energy>
    <i name="e_fr_energy">   -664.37744933 </i>
    <i name="e_wo_entrp">   -664.27905761 </i>
    <i name="e_0_energy">   -664.32825347 </i>
   </energy>
  </scstep>
  <scstep>
   <time name="diag">    1.38    1.39</time>
   <time name="diis">   25.44   25.81</time>
   <time name="orth">    0.35    0.35</time>
   <time name="total">   27.36   27.75</time>
   <energy>
    <i name="e_fr_energy">   -664.38187867 </i>
    <i name="e_wo_entrp">   -664.28348966 </i>
    <i name="e_0_energy">   -664.33268416 </i>
   </energy>
  </scstep>
  <scstep>
   <time name="diag">    1.46    1.47</time>
   <time name="diis">   25.20   25.43</time>
   <time name="orth">    0.36    0.36</time>
   <time name="total">   27.21   27.47</time>
   <energy>
    <i name="e_fr_energy">   -664.38571773 </i>
    <i name="e_wo_entrp">   -664.28730857 </i>
    <i name="e_0_energy">   -664.33651315 </i>
   </energy>
  </scstep>
  <scstep>
   <time name="diag">    1.38    1.39</time>
   <time name="diis">   25.40   25.76</time>
   <time name="orth">    0.35    0.36</time>
   <time name="total">   27.32   27.70</time>
   <energy>
    <i name="e_fr_energy">   -664.38800528 </i>
    <i name="e_wo_entrp">   -664.28964910 </i>
    <i name="e_0_energy">   -664.33882719 </i>
   </energy>
  </scstep>
  <scstep>
   <time name="diag">    1.42    1.49</time>
   <time name="diis">   25.69   25.93</time>
   <time name="orth">    0.35    0.35</time>
   <time name="total">   27.65   27.97</time>
   <energy>
    <i name="e_fr_energy">   -664.38954302 </i>
    <i name="e_wo_entrp">   -664.29123136 </i>
    <i name="e_0_energy">   -664.34038719 </i>
   </energy>
  </scstep>
  <scstep>
   <time name="diag">    1.39    1.40</time>
   <time name="diis">   25.55   25.94</time>
   <time name="orth">    0.37    0.37</time>
   <time name="total">   27.51   27.91</time>
   <energy>
    <i name="e_fr_energy">   -664.39082280 </i>
    <i name="e_wo_entrp">   -664.29254586 </i>
    <i name="e_0_energy">   -664.34168433 </i>
   </energy>
  </scstep>
  <scstep>
   <time name="diag">    1.37    1.38</time>
   <time name="diis">   25.47   25.82</time>
   <time name="orth">    0.36    0.36</time>
   <time name="total">   27.41   27.78</time>
   <energy>
    <i name="e_fr_energy">   -664.39185363 </i>
    <i name="e_wo_entrp">   -664.29360014 </i>
    <i name="e_0_energy">   -664.34272689 </i>
   </energy>
  </scstep>
  <scstep>
   <time name="diag">    1.39    1.42</time>
   <time name="diis">   25.10   25.38</time>
   <time name="orth">    0.37    0.37</time>
   <time name="total">   27.05   27.37</time>
   <energy>
    <i name="e_fr_energy">   -664.39278821 </i>
    <i name="e_wo_entrp">   -664.29450980 </i>
    <i name="e_0_energy">   -664.34364901 </i>
   </energy>
  </scstep>
  <scstep>
   <time name="diag">    1.66    1.69</time>
   <time name="diis">   24.76   25.03</time>
   <time name="orth">    0.35    0.35</time>
   <time name="total">   26.96   27.26</time>
   <energy>
    <i name="e_fr_energy">   -664.39345953 </i>
    <i name="e_wo_entrp">   -664.29518485 </i>
    <i name="e_0_energy">   -664.34432219 </i>
   </energy>
  </scstep>
  <scstep>
   <time name="diag">    1.43    1.45</time>
   <time name="diis">   24.60   24.93</time>
   <time name="orth">    0.43    0.44</time>
   <time name="total">   26.66   27.01</time>
   <energy>
    <i name="e_fr_energy">   -664.39397299 </i>
    <i name="e_wo_entrp">   -664.29570147 </i>
    <i name="e_0_energy">   -664.34483723 </i>
   </energy>
  </scstep>
  <scstep>
   <time name="diag">    1.41    1.42</time>
   <time name="diis">   24.31   24.70</time>
   <time name="orth">    0.36    0.36</time>
   <time name="total">   26.27   26.68</time>
   <energy>
    <i name="e_fr_energy">   -664.39433646 </i>
    <i name="e_wo_entrp">   -664.29607598 </i>
    <i name="e_0_energy">   -664.34520622 </i>
   </energy>
  </scstep>
  <scstep>
   <time name="diag">    1.39    1.41</time>
   <time name="diis">   24.51   24.75</time>
   <time name="orth">    0.35    0.35</time>
   <time name="total">   26.45   26.70</time>
   <energy>
    <i name="e_fr_energy">   -664.39457909 </i>
    <i name="e_wo_entrp">   -664.29638041 </i>
    <i name="e_0_energy">   -664.34547975 </i>
   </energy>
  </scstep>
  <scstep>
   <time name="diag">    1.43    1.44</time>
   <time name="diis">   24.25   24.48</time>
   <time name="orth">    0.35    0.35</time>
   <time name="total">   26.22   26.47</time>
   <energy>
    <i name="e_fr_energy">   -664.39486657 </i>
    <i name="e_wo_entrp">   -664.29667856 </i>
    <i name="e_0_energy">   -664.34577257 </i>
   </energy>
  </scstep>
  <scstep>
   <time name="diag">    1.36    1.36</time>
   <time name="diis">   23.55   23.83</time>
   <time name="orth">    0.35    0.35</time>
   <time name="total">   25.45   25.74</time>
   <energy>
    <i name="e_fr_energy">   -664.39505274 </i>
    <i name="e_wo_entrp">   -664.29686184 </i>
    <i name="e_0_energy">   -664.34595729 </i>
   </energy>
  </scstep>
  <scstep>
   <time name="diag">    1.46    1.50</time>
   <time name="diis">   22.77   23.03</time>
   <time name="orth">    0.35    0.35</time>
   <time name="total">   24.78   25.08</time>
   <energy>
    <i name="e_fr_energy">   -664.39521421 </i>
    <i name="e_wo_entrp">   -664.29702083 </i>
    <i name="e_0_energy">   -664.34611752 </i>
   </energy>
  </scstep>
  <scstep>
   <time name="diag">    1.40    1.41</time>
   <time name="diis">   22.60   22.96</time>
   <time name="orth">    0.36    0.36</time>
   <time name="total">   24.55   24.92</time>
   <energy>
    <i name="e_fr_energy">   -664.39534157 </i>
    <i name="e_wo_entrp">   -664.29714746 </i>
    <i name="e_0_energy">   -664.34624451 </i>
   </energy>
  </scstep>
  <scstep>
   <time name="diag">    1.36    1.39</time>
   <time name="diis">   22.44   22.68</time>
   <time name="orth">    0.37    0.37</time>
   <time name="total">   24.37   24.64</time>
   <energy>
    <i name="e_fr_energy">   -664.39544809 </i>
    <i name="e_wo_entrp">   -664.29725176 </i>
    <i name="e_0_energy">   -664.34634992 </i>
   </energy>
  </scstep>
  <scstep>
   <time name="diag">    1.39    1.40</time>
   <time name="diis">   22.13   22.55</time>
   <time name="orth">    0.44    0.45</time>
   <time name="total">   24.15   24.59</time>
   <energy>
    <i name="e_fr_energy">   -664.39553605 </i>
    <i name="e_wo_entrp">   -664.29733860 </i>
    <i name="e_0_energy">   -664.34643733 </i>
   </energy>
  </scstep>
  <scstep>
   <time name="diag">    1.37    1.44</time>
   <time name="diis">   22.15   22.48</time>
   <time name="orth">    0.35    0.35</time>
   <time name="total">   24.06   24.47</time>
   <energy>
    <i name="e_fr_energy">   -664.39560617 </i>
    <i name="e_wo_entrp">   -664.29740305 </i>
    <i name="e_0_energy">   -664.34650461 </i>
   </energy>
  </scstep>
  <scstep>
   <time name="diag">    1.46    1.47</time>
   <time name="diis">   21.37   21.67</time>
   <time name="orth">    0.36    0.37</time>
   <time name="total">   23.38   23.70</time>
   <energy>
    <i name="e_fr_energy">   -664.39566718 </i>
    <i name="e_wo_entrp">   -664.29746594 </i>
    <i name="e_0_energy">   -664.34656656 </i>
   </energy>
  </scstep>
  <scstep>
   <time name="diag">    1.39    1.40</time>
   <time name="diis">   21.38   21.70</time>
   <time name="orth">    0.37    0.38</time>
   <time name="total">   23.34   23.67</time>
   <energy>
    <i name="e_fr_energy">   -664.39572223 </i>
    <i name="e_wo_entrp">   -664.29751770 </i>
    <i name="e_0_energy">   -664.34661997 </i>
   </energy>
  </scstep>
  <scstep>
   <time name="diag">    1.38    1.39</time>
   <time name="diis">   20.79   21.13</time>
   <time name="orth">    0.35    0.35</time>
   <time name="total">   22.72   23.06</time>
   <energy>
    <i name="e_fr_energy">   -664.39576583 </i>
    <i name="e_wo_entrp">   -664.29756188 </i>
    <i name="e_0_energy">   -664.34666386 </i>
   </energy>
  </scstep>
  <scstep>
   <time name="diag">    1.37    1.37</time>
   <time name="diis">   20.58   20.86</time>
   <time name="orth">    0.39    0.39</time>
   <time name="total">   22.52   22.82</time>
   <energy>
    <i name="e_fr_energy">   -664.39580572 </i>
    <i name="e_wo_entrp">   -664.29760260 </i>
    <i name="e_0_energy">   -664.34670416 </i>
   </energy>
  </scstep>
  <scstep>
   <time name="diag">    1.39    1.40</time>
   <time name="diis">   19.68   19.97</time>
   <time name="orth">    0.35    0.35</time>
   <time name="total">   21.62   21.92</time>
   <energy>
    <i name="e_fr_energy">   -664.39583683 </i>
    <i name="e_wo_entrp">   -664.29763463 </i>
    <i name="e_0_energy">   -664.34673573 </i>
   </energy>
  </scstep>
  <scstep>
   <time name="diag">    1.38    1.39</time>
   <time name="diis">   19.79   19.99</time>
   <time name="orth">    0.37    0.38</time>
   <time name="total">   21.82   22.06</time>
   <energy>
    <i name="e_fr_energy">   -664.39586570 </i>
    <i name="e_wo_entrp">   -664.29766470 </i>
    <i name="e_0_energy">   -664.34676520 </i>
   </energy>
  </scstep>
  <scstep>
   <time name="diag">    1.49    1.51</time>
   <time name="diis">   18.82   19.01</time>
   <time name="orth">    0.36    0.36</time>
   <time name="total">   20.88   21.08</time>
   <energy>
    <i name="e_fr_energy">   -664.39588736 </i>
    <i name="e_wo_entrp">   -664.29768569 </i>
    <i name="e_0_energy">   -664.34678653 </i>
   </energy>
  </scstep>
  <scstep>
   <time name="diag">    1.48    1.49</time>
   <time name="diis">   18.33   18.50</time>
   <time name="orth">    0.35    0.35</time>
   <time name="total">   20.37   20.55</time>
   <energy>
    <i name="e_fr_energy">   -664.39590774 </i>
    <i name="e_wo_entrp">   -664.29770554 </i>
    <i name="e_0_energy">   -664.34680664 </i>
   </energy>
  </scstep>
  <scstep>
   <time name="diag">    1.46    1.48</time>
   <time name="diis">   17.86   18.09</time>
   <time name="orth">    0.35    0.36</time>
   <time name="total">   19.88   20.13</time>
   <energy>
    <i name="e_fr_energy">   -664.39592508 </i>
    <i name="e_wo_entrp">   -664.29772273 </i>
    <i name="e_0_energy">   -664.34682391 </i>
   </energy>
  </scstep>
  <scstep>
   <time name="diag">    1.51    1.52</time>
   <time name="diis">   17.42   17.58</time>
   <time name="orth">    0.35    0.36</time>
   <time name="total">   19.48   19.66</time>
   <energy>
    <i name="e_fr_energy">   -664.39594067 </i>
    <i name="e_wo_entrp">   -664.29773820 </i>
    <i name="e_0_energy">   -664.34683944 </i>
   </energy>
  </scstep>
  <scstep>
   <time name="diag">    1.39    1.39</time>
   <time name="diis">   17.05   17.22</time>
   <time name="orth">    0.35    0.35</time>
   <time name="total">   18.98   19.16</time>
   <energy>
    <i name="e_fr_energy">   -664.39595462 </i>
    <i name="e_wo_entrp">   -664.29775213 </i>
    <i name="e_0_energy">   -664.34685337 </i>
   </energy>
  </scstep>
  <scstep>
   <time name="diag">    1.37    1.37</time>
   <time name="diis">   16.53   16.71</time>
   <time name="orth">    0.40    0.41</time>
   <time name="total">   18.50   18.69</time>
   <energy>
    <i name="e_fr_energy">   -664.39596661 </i>
    <i name="e_wo_entrp">   -664.29776404 </i>
    <i name="e_0_energy">   -664.34686533 </i>
   </energy>
  </scstep>
  <scstep>
   <time name="diag">    1.67    1.70</time>
   <time name="diis">   16.19   16.43</time>
   <time name="orth">    0.35    0.36</time>
   <time name="total">   18.43   18.71</time>
   <energy>
    <i name="e_fr_energy">   -664.39597741 </i>
    <i name="e_wo_entrp">   -664.29777474 </i>
    <i name="e_0_energy">   -664.34687608 </i>
   </energy>
  </scstep>
  <scstep>
   <time name="diag">    1.40    1.46</time>
   <time name="diis">   15.51   15.66</time>
   <time name="orth">    0.39    0.40</time>
   <time name="total">   17.50   17.72</time>
   <energy>
    <i name="e_fr_energy">   -664.39598706 </i>
    <i name="e_wo_entrp">   -664.29778422 </i>
    <i name="e_0_energy">   -664.34688564 </i>
   </energy>
  </scstep>
  <scstep>
   <time name="diag">    1.39    1.40</time>
   <time name="diis">   14.78   15.00</time>
   <time name="orth">    0.36    0.36</time>
   <time name="total">   16.74   16.97</time>
   <energy>
    <i name="e_fr_energy">   -664.39599577 </i>
    <i name="e_wo_entrp">   -664.29779285 </i>
    <i name="e_0_energy">   -664.34689431 </i>
   </energy>
  </scstep>
  <scstep>
   <time name="diag">    1.37    1.38</time>
   <time name="diis">   14.28   14.62</time>
   <time name="orth">    0.35    0.35</time>
   <time name="total">   16.02   16.37</time>
   <energy>
    <i name="alphaZ">   3932.95660159 </i>
    <i name="ewald"> -35562.01667136 </i>
    <i name="hartreedc">  -5183.88864770 </i>
    <i name="XCdc">   1151.94142105 </i>
    <i name="pawpsdc">  24414.98361331 </i>
    <i name="pawaedc"> -23629.17792268 </i>
    <i name="eentropy">     -0.09820298 </i>
    <i name="bandstr">  -3934.63785244 </i>
    <i name="atom">  38145.54165741 </i>
    <i name="e_fr_energy">   -664.39600381 </i>
    <i name="e_wo_entrp">   -664.29780082 </i>
    <i name="e_0_energy">   -664.34690231 </i>
   </energy>
  </scstep>
  <structure>
   <crystal>
    <varray name="basis" >
     <v>       9.03972867      -0.00879691       0.00953501 </v>
     <v>      -0.00313273       9.06033028       0.00116777 </v>
     <v>       0.04202810      -0.01453105       9.01823866 </v>
    </varray>
    <i name="volume">    738.61642026 </i>
    <varray name="rec_basis" >
     <v>       0.11062337       0.00003832      -0.00051548 </v>
     <v>       0.00010722       0.11037127       0.00017734 </v>
     <v>      -0.00011698      -0.00001433       0.11088692 </v>
    </varray>
   </crystal>
   <varray name="positions" >
    <v>       0.99614388       0.99888572       0.99985940 </v>
    <v>       0.25018339       0.00044227       0.25139747 </v>
    <v>       0.24945717       0.49987491       0.25085290 </v>
    <v>       0.50064117       0.50190099       0.99899695 </v>
    <v>       0.50116791       0.24589837       0.74339623 </v>
    <v>       0.99770083       0.49993588       0.49972288 </v>
    <v>       0.49836155       0.75421905       0.74951196 </v>
    <v>       0.98742321       0.23107217       0.26824219 </v>
    <v>       0.76951960       0.73738255       0.99688472 </v>
    <v>       0.01948111       0.27592937       0.75096238 </v>
    <v>       0.76975127       0.25884506       0.47914419 </v>
    <v>       0.99122308       0.73279627       0.75415907 </v>
    <v>       0.26269579       0.48755306       0.74841205 </v>
    <v>       0.24425967       0.25226850       0.99487845 </v>
    <v>       0.50355731       0.25630059       0.25307916 </v>
    <v>       0.74861405       0.99891642       0.25429125 </v>
    <v>       0.75709901       0.25779145       0.99235448 </v>
    <v>       0.24219828       0.74767776       0.99708613 </v>
    <v>       0.24565374       0.25114586       0.50479551 </v>
    <v>       0.24430152       0.74938844       0.50442604 </v>
    <v>       0.24973189       0.24849423       0.25210920 </v>
    <v>       0.25632949       0.99993294       0.99481244 </v>
    <v>       0.00057065       0.25421950       0.01124952 </v>
    <v>       0.74967704       0.24885476       0.24227306 </v>
    <v>       0.74344934       0.00206690       0.99667574 </v>
    <v>       0.50259787       0.00080995       0.24902777 </v>
    <v>       0.99485014       0.49666995       0.24350717 </v>
    <v>       0.49658685       0.76079586       0.00355541 </v>
    <v>       0.99921959       0.00098963       0.74860118 </v>
    <v>       0.75754448       0.23755138       0.74904244 </v>
    <v>       0.74443672       0.00198612       0.50401924 </v>
    <v>       0.50177382       0.24081808       0.49540614 </v>
    <v>       0.50636333       0.00016967       0.75022397 </v>
    <v>       0.99583756       0.99762249       0.25416458 </v>
    <v>       0.50362357       0.24246183       0.00120418 </v>
    <v>       0.25099659       0.75108695       0.24947487 </v>
    <v>       0.24405054       0.49943566       0.99725344 </v>
    <v>       0.00000910       0.74602004       0.00150828 </v>
    <v>       0.74687140       0.74830530       0.24584709 </v>
    <v>       0.75718105       0.50182894       0.99954172 </v>
    <v>       0.50298611       0.50211111       0.25279214 </v>
    <v>       0.25335381       0.24497162       0.74942572 </v>
    <v>       0.25047022       0.99998366       0.50516186 </v>
    <v>       0.99503040       0.24856423       0.51402762 </v>
    <v>       0.24337191       0.75531753       0.75100381 </v>
    <v>       0.25251330       0.49964993       0.50369820 </v>
    <v>       0.99536418       0.75482110       0.50402525 </v>
    <v>       0.00256329       0.50124239       0.75361286 </v>
    <v>       0.74890626       0.75248222       0.74997241 </v>
    <v>       0.74676521       0.49555246       0.50073077 </v>
    <v>       0.49863831       0.75054242       0.49697020 </v>
    <v>       0.50173750       0.50003609       0.74580179 </v>
    <v>       0.50233875       0.00681899       0.00806253 </v>
    <v>       0.99873704       0.50480607       0.99932456 </v>
    <v>       0.50120491       0.74431592       0.25221235 </v>
    <v>       0.23028326       0.00369011       0.74627153 </v>
    <v>       0.49361013       0.98797346       0.49016878 </v>
    <v>       0.76506547       0.98786272       0.74491119 </v>
    <v>       0.99630345       0.76351619       0.25317624 </v>
    <v>       0.74599579       0.50219872       0.25316053 </v>
    <v>       0.99909008       0.00293078       0.49930503 </v>
    <v>       0.49991922       0.51265534       0.49948823 </v>
    <v>       0.74224606       0.51696646       0.74781963 </v>
    <v>       0.75237115       0.74264536       0.49692604 </v>
   </varray>
  </structure>
  <varray name="forces" >
   <v>      -0.00465095      -0.00062437       0.00014374 </v>
   <v>       0.00412229      -0.00156409      -0.00406493 </v>
   <v>       0.00428234      -0.00302027      -0.00161952 </v>
   <v>      -0.00282539       0.00094138      -0.00131280 </v>
   <v>      -0.00039929       0.00199830       0.00123726 </v>
   <v>       0.00387792      -0.00451396       0.00016726 </v>
   <v>      -0.00087466      -0.00347018       0.00304416 </v>
   <v>       0.00028917      -0.00265557      -0.00220760 </v>
   <v>      -0.00300323      -0.00199787       0.00453279 </v>
   <v>      -0.00134763       0.00195862       0.00559644 </v>
   <v>      -0.00208510      -0.00827659      -0.00011161 </v>
   <v>       0.00234547      -0.00173089      -0.00474975 </v>
   <v>       0.00284307       0.00195755       0.00153197 </v>
   <v>      -0.00433883      -0.00014828       0.00147229 </v>
   <v>       0.00076777      -0.00330183       0.00194995 </v>
   <v>      -0.00209009       0.00074989       0.00762158 </v>
   <v>       0.00226933       0.00210290       0.00163745 </v>
   <v>       0.00343048      -0.00275130       0.00162352 </v>
   <v>      -0.00133142       0.00035497       0.00214263 </v>
   <v>       0.00310567      -0.00171083       0.00165920 </v>
   <v>       0.00034003      -0.00255875       0.00146449 </v>
   <v>      -0.00137047      -0.00064515      -0.00355159 </v>
   <v>      -0.00016495      -0.00409259      -0.00013445 </v>
   <v>      -0.00209036      -0.00084232       0.00339634 </v>
   <v>       0.00098597      -0.00014348       0.00072024 </v>
   <v>       0.00024652      -0.00223477      -0.00224084 </v>
   <v>      -0.00187777      -0.00209995      -0.00264114 </v>
   <v>       0.00032637       0.00002539       0.00119640 </v>
   <v>       0.00085311      -0.00131249      -0.00348282 </v>
   <v>      -0.00007275       0.00294075      -0.00026573 </v>
   <v>      -0.00009511       0.00216303       0.00113845 </v>
   <v>      -0.00311774      -0.00240662       0.00099875 </v>
   <v>       0.00020173      -0.00020599      -0.00145009 </v>
   <v>      -0.00298155      -0.00008930       0.00048531 </v>
   <v>       0.00020439      -0.00129381      -0.00280222 </v>
   <v>       0.00075855      -0.00267451       0.00148539 </v>
   <v>       0.00008294      -0.00271463      -0.00226963 </v>
   <v>      -0.00299278      -0.00033758      -0.00076794 </v>
   <v>       0.00098860       0.00191061       0.00019278 </v>
   <v>       0.00000102      -0.00283026      -0.00197714 </v>
   <v>      -0.00091348      -0.00246885       0.00052468 </v>
   <v>      -0.00128740       0.00163699      -0.00055670 </v>
   <v>      -0.00002473      -0.00293977       0.00393754 </v>
   <v>       0.00711295       0.00039841       0.00494258 </v>
   <v>       0.00219921      -0.00013290       0.00211229 </v>
   <v>       0.00006925      -0.00264273       0.00121123 </v>
   <v>       0.00104696       0.00070740       0.00155142 </v>
   <v>       0.00096420      -0.00290974      -0.00307029 </v>
   <v>       0.00256801       0.00150858       0.00428511 </v>
   <v>      -0.00141425      -0.00269528      -0.00430127 </v>
   <v>      -0.00020918       0.00027671       0.00135021 </v>
   <v>       0.00121251      -0.00219590      -0.00025744 </v>
   <v>       0.00469711      -0.00201928      -0.00694840 </v>
   <v>       0.00095438      -0.00415495      -0.00086936 </v>
   <v>      -0.00194291       0.00261012      -0.00547996 </v>
   <v>      -0.00046525      -0.00219390       0.00297647 </v>
   <v>      -0.00209156       0.00170547       0.00736966 </v>
   <v>      -0.00417214      -0.00032675      -0.00386382 </v>
   <v>       0.00583483       0.02283453       0.00851132 </v>
   <v>      -0.01547976       0.01515298       0.00513669 </v>
   <v>       0.01922161      -0.00646696      -0.02166983 </v>
   <v>      -0.00411145       0.02145207      -0.00246618 </v>
   <v>      -0.01964681       0.02177625      -0.00149979 </v>
   <v>       0.01126524      -0.01376769      -0.00271474 </v>
  </varray>
  <varray name="stress" >
   <v>       0.16436120      -0.13027430       0.13921728 </v>
   <v>      -0.13027338      -0.23266381       0.24446726 </v>
   <v>       0.13921435       0.24446601       0.06500319 </v>
  </varray>
  <energy>
   <i name="e_fr_energy">   -664.39600381 </i>
   <i name="e_wo_entrp">   -664.29780082 </i>
   <i name="e_0_energy">   -664.34690231 </i>
  </energy>
  <time name="totalsc"> 1389.82 1407.72</time>
 </calculation>
 <calculation>
  <scstep>
   <time name="dav">   23.75   24.03</time>
   <time name="total">   23.94   24.22</time>
   <energy>
    <i name="alphaZ">   3932.96117689 </i>
    <i name="ewald"> -35561.57140684 </i>
    <i name="hartreedc">  -5184.35070809 </i>
    <i name="XCdc">   1151.94559259 </i>
    <i name="pawpsdc">  24415.00453344 </i>
    <i name="pawaedc"> -23629.18874013 </i>
    <i name="eentropy">     -0.09808122 </i>
    <i name="bandstr">  -3934.63965681 </i>
    <i name="atom">  38145.54165741 </i>
    <i name="e_fr_energy">   -664.39563276 </i>
    <i name="e_wo_entrp">   -664.29755154 </i>
    <i name="e_0_energy">   -664.34659215 </i>
   </energy>
  </scstep>
  <scstep>
   <time name="diag">    1.34    1.35</time>
   <time name="diis">   19.77   19.97</time>
   <time name="orth">    0.35    0.35</time>
   <time name="total">   21.67   22.20</time>
   <energy>
    <i name="e_fr_energy">   -664.39603849 </i>
    <i name="e_wo_entrp">   -664.29798031 </i>
    <i name="e_0_energy">   -664.34700940 </i>
   </energy>
  </scstep>
  <scstep>
   <time name="diag">    1.37    1.38</time>
   <time name="diis">   21.74   21.93</time>
   <time name="orth">    0.35    0.35</time>
   <time name="total">   23.73   23.94</time>
   <energy>
    <i name="e_fr_energy">   -664.39611345 </i>
    <i name="e_wo_entrp">   -664.29808834 </i>
    <i name="e_0_energy">   -664.34710089 </i>
   </energy>
  </scstep>
  <scstep>
   <time name="diag">    1.46    1.47</time>
   <time name="diis">   19.21   19.33</time>
   <time name="orth">    0.37    0.37</time>
   <time name="total">   21.25   21.38</time>
   <energy>
    <i name="e_fr_energy">   -664.39611798 </i>
    <i name="e_wo_entrp">   -664.29808972 </i>
    <i name="e_0_energy">   -664.34710385 </i>
   </energy>
  </scstep>
  <scstep>
   <time name="diag">    1.37    1.37</time>
   <time name="diis">   15.72   15.97</time>
   <time name="orth">    0.39    0.39</time>
   <time name="total">   17.50   17.75</time>
   <energy>
    <i name="alphaZ">   3932.96117689 </i>
    <i name="ewald"> -35561.57140684 </i>
    <i name="hartreedc">  -5184.46628544 </i>
    <i name="XCdc">   1151.95094823 </i>
    <i name="pawpsdc">  24415.42153102 </i>
    <i name="pawaedc"> -23629.49460435 </i>
    <i name="eentropy">     -0.09803290 </i>
    <i name="bandstr">  -3934.64110138 </i>
    <i name="atom">  38145.54165741 </i>
    <i name="e_fr_energy">   -664.39611735 </i>
    <i name="e_wo_entrp">   -664.29808445 </i>
    <i name="e_0_energy">   -664.34710090 </i>
   </energy>
  </scstep>
  <structure>
   <crystal>
    <varray name="basis" >
     <v>       9.04024585      -0.00920462       0.00997181 </v>
     <v>      -0.00354301       9.05959798       0.00193735 </v>
     <v>       0.04246743      -0.01376565       9.01844317 </v>
    </varray>
    <i name="volume">    738.61556101 </i>
    <varray name="rec_basis" >
     <v>       0.11061708       0.00004337      -0.00052082 </v>
     <v>       0.00011220       0.11038018       0.00016795 </v>
     <v>      -0.00012233      -0.00002376       0.11088442 </v>
    </varray>
   </crystal>
   <varray name="positions" >
    <v>       0.99611906       0.99888237       0.99986020 </v>
    <v>       0.25020549       0.00043393       0.25137571 </v>
    <v>       0.24948006       0.49985883       0.25084422 </v>
    <v>       0.50062613       0.50190598       0.99898994 </v>
    <v>       0.50116576       0.24590902       0.74340285 </v>
    <v>       0.99772151       0.49991186       0.49972375 </v>
    <v>       0.49835680       0.75420060       0.74952825 </v>
    <v>       0.98742480       0.23105801       0.26823038 </v>
    <v>       0.76950346       0.73737194       0.99690899 </v>
    <v>       0.01947378       0.27593984       0.75099232 </v>
    <v>       0.76974013       0.25880098       0.47914361 </v>
    <v>       0.99123571       0.73278703       0.75413365 </v>
    <v>       0.26271093       0.48756351       0.74842023 </v>
    <v>       0.24423647       0.25226770       0.99488635 </v>
    <v>       0.50356135       0.25628303       0.25308959 </v>
    <v>       0.74860271       0.99892047       0.25433204 </v>
    <v>       0.75711108       0.25780267       0.99236322 </v>
    <v>       0.24221654       0.74766314       0.99709480 </v>
    <v>       0.24564658       0.25114776       0.50480698 </v>
    <v>       0.24431805       0.74937936       0.50443490 </v>
    <v>       0.24973367       0.24848062       0.25211704 </v>
    <v>       0.25632226       0.99992946       0.99479345 </v>
    <v>       0.00056977       0.25419770       0.01124880 </v>
    <v>       0.74966580       0.24885029       0.24229125 </v>
    <v>       0.74345458       0.00206615       0.99667959 </v>
    <v>       0.50259924       0.00079803       0.24901578 </v>
    <v>       0.99484018       0.49665874       0.24349305 </v>
    <v>       0.49658857       0.76079600       0.00356181 </v>
    <v>       0.99922422       0.00098261       0.74858255 </v>
    <v>       0.75754410       0.23756703       0.74904102 </v>
    <v>       0.74443619       0.00199764       0.50402533 </v>
    <v>       0.50175715       0.24080526       0.49541151 </v>
    <v>       0.50636444       0.00016856       0.75021621 </v>
    <v>       0.99582164       0.99762200       0.25416719 </v>
    <v>       0.50362472       0.24245491       0.00118919 </v>
    <v>       0.25100060       0.75107273       0.24948282 </v>
    <v>       0.24405103       0.49942119       0.99724130 </v>
    <v>       0.99999315       0.74601822       0.00150419 </v>
    <v>       0.74687668       0.74831548       0.24584812 </v>
    <v>       0.75718110       0.50181385       0.99953114 </v>
    <v>       0.50298121       0.50209797       0.25279495 </v>
    <v>       0.25334696       0.24498033       0.74942274 </v>
    <v>       0.25046998       0.99996804       0.50518293 </v>
    <v>       0.99506824       0.24856643       0.51405402 </v>
    <v>       0.24338359       0.75531685       0.75101510 </v>
    <v>       0.25251364       0.49963587       0.50370468 </v>
    <v>       0.99536973       0.75482488       0.50403355 </v>
    <v>       0.00256851       0.50122688       0.75359644 </v>
    <v>       0.74891986       0.75249030       0.74999532 </v>
    <v>       0.74675777       0.49553807       0.50070777 </v>
    <v>       0.49863716       0.75054391       0.49697743 </v>
    <v>       0.50174397       0.50002440       0.74580041 </v>
    <v>       0.50236398       0.00680821       0.00802533 </v>
    <v>       0.99874215       0.50478394       0.99931991 </v>
    <v>       0.50119469       0.74432976       0.25218304 </v>
    <v>       0.23028070       0.00367845       0.74628746 </v>
    <v>       0.49359879       0.98798260       0.49020821 </v>
    <v>       0.76504330       0.98786093       0.74489055 </v>
    <v>       0.99633442       0.76363788       0.25322172 </v>
    <v>       0.74591308       0.50227937       0.25318808 </v>
    <v>       0.99919319       0.00289626       0.49918900 </v>
    <v>       0.49989737       0.51276952       0.49947505 </v>
    <v>       0.74214128       0.51708230       0.74781170 </v>
    <v>       0.75243131       0.74257209       0.49691146 </v>
   </varray>
  </structure>
  <varray name="forces" >
   <v>      -0.00572033       0.00204412      -0.00299571 </v>
   <v>       0.00343266       0.00077389      -0.00173529 </v>
   <v>       0.00130422      -0.00175457      -0.00057066 </v>
   <v>      -0.00125229       0.00093554       0.00089391 </v>
   <v>       0.00126327       0.00224636      -0.00107368 </v>
   <v>      -0.00118929      -0.00026251      -0.00289213 </v>
   <v>      -0.00041829       0.00201642       0.00155051 </v>
   <v>       0.00078919       0.00135112      -0.00154458 </v>
   <v>       0.00227734       0.00068969       0.00488825 </v>
   <v>      -0.00253162       0.00133423       0.00643940 </v>
   <v>       0.00543405      -0.00230646       0.00466885 </v>
   <v>       0.00054821       0.00020631      -0.00457428 </v>
   <v>       0.00231678       0.00408704       0.00043489 </v>
   <v>      -0.00093331      -0.00114437      -0.00161699 </v>
   <v>      -0.00015610      -0.00243713       0.00077761 </v>
   <v>      -0.00344607       0.00086880       0.00352622 </v>
   <v>       0.00012946       0.00146173      -0.00147320 </v>
   <v>      -0.00453841       0.00153694       0.00054254 </v>
   <v>       0.00188384      -0.00023097       0.00060945 </v>
   <v>      -0.00124376      -0.00146267       0.00166958 </v>
   <v>      -0.00010528      -0.00044521       0.00036700 </v>
   <v>       0.00014130      -0.00039680      -0.00120789 </v>
   <v>      -0.00036351      -0.00217564       0.00072522 </v>
   <v>      -0.00067486       0.00185020       0.00199029 </v>
   <v>      -0.00025767       0.00065067       0.00053188 </v>
   <v>       0.00056828      -0.00017078      -0.00023042 </v>
   <v>      -0.00201485      -0.00240557      -0.00137320 </v>
   <v>      -0.00116800      -0.00020068       0.00001261 </v>
   <v>       0.00044778      -0.00065925      -0.00470589 </v>
   <v>      -0.00130770       0.00135980       0.00039216 </v>
   <v>       0.00187520       0.00144248      -0.00061241 </v>
   <v>      -0.00138895      -0.00250278       0.00039962 </v>
   <v>       0.00027976       0.00112352      -0.00116851 </v>
   <v>       0.00099424       0.00550002      -0.00453337 </v>
   <v>      -0.00030586       0.00044067      -0.00094149 </v>
   <v>       0.00020306       0.00043773      -0.00053730 </v>
   <v>      -0.00055223      -0.00078365       0.00039074 </v>
   <v>      -0.00018994      -0.00020815       0.00110417 </v>
   <v>       0.00074944       0.00256694       0.00102298 </v>
   <v>      -0.00187089       0.00147168      -0.00137458 </v>
   <v>      -0.00254830       0.00099639      -0.00025914 </v>
   <v>      -0.00078694       0.00082223       0.00164242 </v>
   <v>       0.00151731      -0.00022368      -0.00194798 </v>
   <v>      -0.00115473      -0.00480508      -0.00094340 </v>
   <v>       0.00165977      -0.00073178       0.00165873 </v>
   <v>       0.00095824       0.00153480      -0.00059989 </v>
   <v>       0.00414846      -0.00030347      -0.00053607 </v>
   <v>      -0.00142000       0.00182482      -0.00063454 </v>
   <v>      -0.00246825       0.00742429       0.00124423 </v>
   <v>      -0.00089862      -0.00237342      -0.00160687 </v>
   <v>       0.00165160       0.00570813      -0.00016724 </v>
   <v>      -0.00264755       0.00214071      -0.00093801 </v>
   <v>       0.00514282      -0.00015767      -0.00397314 </v>
   <v>      -0.00058355      -0.00140603       0.00073901 </v>
   <v>      -0.00132417       0.00557387      -0.00250831 </v>
   <v>      -0.00475268      -0.00105349       0.00293060 </v>
   <v>      -0.00370828       0.00118854       0.00388889 </v>
   <v>       0.00258362       0.00415225      -0.00303733 </v>
   <v>       0.00116607      -0.01741035      -0.00045916 </v>
   <v>       0.00599968      -0.00246983      -0.00576106 </v>
   <v>      -0.00411684       0.00475157       0.01412323 </v>
   <v>      -0.00159002      -0.01300489       0.00057636 </v>
   <v>       0.01192454      -0.02473584      -0.00293097 </v>
   <v>      -0.00176100       0.01570919       0.00172335 </v>
  </varray>
  <varray name="stress" >
   <v>       0.07053247      -0.03848909      -0.01748764 </v>
   <v>      -0.03848901       0.36918284       0.00288825 </v>
   <v>      -0.01748730       0.00288602       0.06511121 </v>
  </varray>
  <energy>
   <i name="e_fr_energy">   -664.39611735 </i>
   <i name="e_wo_entrp">   -664.29808445 </i>
   <i name="e_0_energy">   -664.34710090 </i>
  </energy>
  <time name="totalsc">  148.06  149.86</time>
 </calculation>
 <calculation>
  <scstep>
   <time name="dav">   27.35   27.57</time>
   <time name="total">   27.54   27.77</time>
   <energy>
    <i name="alphaZ">   3932.95995614 </i>
    <i name="ewald"> -35561.68944887 </i>
    <i name="hartreedc">  -5184.35215547 </i>
    <i name="XCdc">   1151.95026737 </i>
    <i name="pawpsdc">  24415.45254779 </i>
    <i name="pawaedc"> -23629.50989998 </i>
    <i name="eentropy">     -0.09805238 </i>
    <i name="bandstr">  -3934.65099831 </i>
    <i name="atom">  38145.54165741 </i>
    <i name="e_fr_energy">   -664.39612630 </i>
    <i name="e_wo_entrp">   -664.29807392 </i>
    <i name="e_0_energy">   -664.34710011 </i>
   </energy>
  </scstep>
  <scstep>
   <time name="diag">    1.39    1.40</time>
   <time name="diis">   17.67   18.00</time>
   <time name="orth">    0.36    0.37</time>
   <time name="total">   19.61   19.96</time>
   <energy>
    <i name="e_fr_energy">   -664.39615429 </i>
    <i name="e_wo_entrp">   -664.29809180 </i>
    <i name="e_0_energy">   -664.34712304 </i>
   </energy>
  </scstep>
  <scstep>
   <time name="diag">    1.39    1.40</time>
   <time name="diis">   11.81   11.92</time>
   <time name="orth">    0.35    0.36</time>
   <time name="total">   13.58   13.70</time>
   <energy>
    <i name="alphaZ">   3932.95995614 </i>
    <i name="ewald"> -35561.68944887 </i>
    <i name="hartreedc">  -5184.36110432 </i>
    <i name="XCdc">   1151.95056379 </i>
    <i name="pawpsdc">  24415.44408057 </i>
    <i name="pawaedc"> -23629.49032358 </i>
    <i name="eentropy">     -0.09806545 </i>
    <i name="bandstr">  -3934.65347348 </i>
    <i name="atom">  38145.54165741 </i>
    <i name="e_fr_energy">   -664.39615778 </i>
    <i name="e_wo_entrp">   -664.29809233 </i>
    <i name="e_0_energy">   -664.34712505 </i>
   </energy>
  </scstep>
  <structure>
   <crystal>
    <varray name="basis" >
     <v>       9.04010930      -0.00909698       0.00985649 </v>
     <v>      -0.00343469       9.05979131       0.00173417 </v>
     <v>       0.04235144      -0.01396773       9.01838918 </v>
    </varray>
    <i name="volume">    738.61579027 </i>
    <varray name="rec_basis" >
     <v>       0.11061874       0.00004204      -0.00051941 </v>
     <v>       0.00011089       0.11037783       0.00017043 </v>
     <v>      -0.00012092      -0.00002127       0.11088508 </v>
    </varray>
   </crystal>
   <varray name="positions" >
    <v>       0.99612561       0.99888326       0.99985999 </v>
    <v>       0.25019965       0.00043613       0.25138145 </v>
    <v>       0.24947401       0.49986308       0.25084651 </v>
    <v>       0.50063010       0.50190466       0.99899179 </v>
    <v>       0.50116633       0.24590621       0.74340110 </v>
    <v>       0.99771605       0.49991820       0.49972352 </v>
    <v>       0.49835805       0.75420547       0.74952395 </v>
    <v>       0.98742438       0.23106175       0.26823350 </v>
    <v>       0.76950772       0.73737474       0.99690258 </v>
    <v>       0.01947571       0.27593708       0.75098442 </v>
    <v>       0.76974307       0.25881261       0.47914377 </v>
    <v>       0.99123238       0.73278947       0.75414036 </v>
    <v>       0.26270694       0.48756075       0.74841807 </v>
    <v>       0.24424260       0.25226791       0.99488426 </v>
    <v>       0.50356028       0.25628767       0.25308684 </v>
    <v>       0.74860571       0.99891940       0.25432127 </v>
    <v>       0.75710790       0.25779971       0.99236092 </v>
    <v>       0.24221172       0.74766700       0.99709251 </v>
    <v>       0.24564847       0.25114726       0.50480395 </v>
    <v>       0.24431369       0.74938175       0.50443256 </v>
    <v>       0.24973320       0.24848421       0.25211497 </v>
    <v>       0.25632417       0.99993038       0.99479846 </v>
    <v>       0.00057000       0.25420346       0.01124899 </v>
    <v>       0.74966876       0.24885147       0.24228645 </v>
    <v>       0.74345319       0.00206634       0.99667857 </v>
    <v>       0.50259887       0.00080118       0.24901895 </v>
    <v>       0.99484281       0.49666170       0.24349678 </v>
    <v>       0.49658811       0.76079596       0.00356012 </v>
    <v>       0.99922300       0.00098446       0.74858747 </v>
    <v>       0.75754420       0.23756290       0.74904139 </v>
    <v>       0.74443633       0.00199460       0.50402372 </v>
    <v>       0.50176155       0.24080865       0.49541009 </v>
    <v>       0.50636415       0.00016885       0.75021826 </v>
    <v>       0.99582584       0.99762213       0.25416650 </v>
[...]
      </set>
     </set>
    </set>
   </array>
  </eigenvalues>
  <separator name="orbital magnetization" >
   <v name="MAGDIPOLOUT">      0.00000000      0.00000000      0.00000000</v>
  </separator>
  <dos>
   <i name="efermi">      8.58524375 </i>
   <total>
    <array>
     <dimension dim="1">gridpoints</dimension>
     <dimension dim="2">spin</dimension>
     <field>energy</field>
     <field>total</field>
     <field>integrated</field>
     <set>
      <set comment="spin 1">
       <r>   -50.2033     0.0000     0.0000 </r>
       <r>   -49.9844     0.0000     0.0000 </r>
       <r>   -49.7656     0.0000     0.0000 </r>
       <r>   -49.5467     0.0000     0.0000 </r>
       <r>   -49.3278     0.0000     0.0000 </r>
       <r>   -49.1090     0.0000     0.0000 </r>
       <r>   -48.8901     0.0000     0.0000 </r>
       <r>   -48.6712     0.0000     0.0000 </r>
       <r>   -48.4524     0.0000     0.0000 </r>
       <r>   -48.2335     0.0000     0.0000 </r>
       <r>   -48.0146     0.0000     0.0000 </r>
       <r>   -47.7958     0.0000     0.0000 </r>
       <r>   -47.5769     0.0000     0.0000 </r>
       <r>   -47.3581     0.3749     0.0820 </r>
       <r>   -47.1392    29.2217     6.4776 </r>
       <r>   -46.9203    24.0907    11.7502 </r>
       <r>   -46.7015     1.1413    12.0000 </r>
       <r>   -46.4826     0.0001    12.0000 </r>
       <r>   -46.2637     0.0000    12.0000 </r>
       <r>   -46.0449     0.0000    12.0000 </r>
       <r>   -45.8260     0.0000    12.0000 </r>
       <r>   -45.6071     0.0000    12.0000 </r>
       <r>   -45.3883     0.0000    12.0000 </r>
       <r>   -45.1694     0.0000    12.0000 </r>
       <r>   -44.9506     0.0000    12.0000 </r>
       <r>   -44.7317     0.0000    12.0000 </r>
       <r>   -44.5128     0.0000    12.0000 </r>
       <r>   -44.2940     0.0000    12.0000 </r>
       <r>   -44.0751     0.0000    12.0000 </r>
       <r>   -43.8562     0.0000    12.0000 </r>
       <r>   -43.6374     0.0000    12.0000 </r>
       <r>   -43.4185     0.0000    12.0000 </r>
       <r>   -43.1996     0.0000    12.0000 </r>
       <r>   -42.9808     0.0000    12.0000 </r>
       <r>   -42.7619     0.0000    12.0000 </r>
       <r>   -42.5431     0.0000    12.0000 </r>
       <r>   -42.3242     0.0000    12.0000 </r>
       <r>   -42.1053     0.0000    12.0000 </r>
       <r>   -41.8865     0.0000    12.0000 </r>
       <r>   -41.6676     0.0000    12.0000 </r>
       <r>   -41.4487     0.0000    12.0000 </r>
       <r>   -41.2299     0.0000    12.0000 </r>
       <r>   -41.0110     0.0015    12.0003 </r>
       <r>   -40.7921     2.8461    12.6232 </r>
       <r>   -40.5733     8.2166    14.4216 </r>
       <r>   -40.3544    16.6946    18.0754 </r>
       <r>   -40.1356    29.1137    24.4473 </r>
       <r>   -39.9167     7.0906    25.9992 </r>
       <r>   -39.6978     0.0037    26.0000 </r>
       <r>   -39.4790     0.0000    26.0000 </r>
       <r>   -39.2601     0.0000    26.0000 </r>
       <r>   -39.0412     0.0000    26.0000 </r>
       <r>   -38.8224     0.0000    26.0000 </r>
       <r>   -38.6035     0.0000    26.0000 </r>
       <r>   -38.3847     0.0000    26.0000 </r>
       <r>   -38.1658     0.0000    26.0000 </r>
       <r>   -37.9469     0.0000    26.0000 </r>
       <r>   -37.7281     0.0000    26.0000 </r>
       <r>   -37.5092     0.0000    26.0000 </r>
       <r>   -37.2903     0.0000    26.0000 </r>
       <r>   -37.0715     0.0000    26.0000 </r>
       <r>   -36.8526     0.0000    26.0000 </r>
       <r>   -36.6337     0.0000    26.0000 </r>
       <r>   -36.4149     0.0000    26.0000 </r>
       <r>   -36.1960     0.0000    26.0000 </r>
       <r>   -35.9772     0.0000    26.0000 </r>
       <r>   -35.7583     0.0000    26.0000 </r>
       <r>   -35.5394     0.0000    26.0000 </r>
       <r>   -35.3206     0.0000    26.0000 </r>
       <r>   -35.1017     0.0000    26.0000 </r>
       <r>   -34.8828     0.0000    26.0000 </r>
       <r>   -34.6640     0.0000    26.0000 </r>
       <r>   -34.4451     0.0000    26.0000 </r>
       <r>   -34.2262     0.0000    26.0000 </r>
       <r>   -34.0074     0.0000    26.0000 </r>
       <r>   -33.7885     0.0000    26.0000 </r>
       <r>   -33.5697     0.0000    26.0000 </r>
       <r>   -33.3508     0.0000    26.0000 </r>
       <r>   -33.1319     0.0000    26.0000 </r>
       <r>   -32.9131     0.0000    26.0000 </r>
       <r>   -32.6942     0.0000    26.0000 </r>
       <r>   -32.4753     0.0000    26.0000 </r>
       <r>   -32.2565     0.0000    26.0000 </r>
       <r>   -32.0376     0.0000    26.0000 </r>
       <r>   -31.8187     0.0000    26.0000 </r>
       <r>   -31.5999     0.0000    26.0000 </r>
       <r>   -31.3810     0.0000    26.0000 </r>
       <r>   -31.1622     0.0000    26.0000 </r>
       <r>   -30.9433     0.0000    26.0000 </r>
       <r>   -30.7244     0.0000    26.0000 </r>
       <r>   -30.5056     0.0000    26.0000 </r>
       <r>   -30.2867     0.0000    26.0000 </r>
       <r>   -30.0678     0.0000    26.0000 </r>
       <r>   -29.8490     0.0000    26.0000 </r>
       <r>   -29.6301     0.0000    26.0000 </r>
       <r>   -29.4112     0.0000    26.0000 </r>
       <r>   -29.1924     0.0000    26.0000 </r>
       <r>   -28.9735     0.0000    26.0000 </r>
       <r>   -28.7547     0.0000    26.0000 </r>
       <r>   -28.5358     0.0000    26.0000 </r>
       <r>   -28.3169     0.0000    26.0000 </r>
       <r>   -28.0981     0.0000    26.0000 </r>
       <r>   -27.8792     0.0000    26.0000 </r>
       <r>   -27.6603     0.0000    26.0000 </r>
       <r>   -27.4415     0.1800    26.0394 </r>
       <r>   -27.2226    23.2860    31.1359 </r>
       <r>   -27.0037    51.4925    42.4057 </r>
       <r>   -26.7849    39.7503    51.1056 </r>
       <r>   -26.5660    40.5807    59.9872 </r>
       <r>   -26.3472     9.1896    61.9985 </r>
       <r>   -26.1283     0.0070    62.0000 </r>
       <r>   -25.9094     0.0000    62.0000 </r>
       <r>   -25.6906     0.0000    62.0000 </r>
       <r>   -25.4717     0.0000    62.0000 </r>
       <r>   -25.2528     0.0000    62.0000 </r>
       <r>   -25.0340     0.0000    62.0000 </r>
       <r>   -24.8151     0.0000    62.0000 </r>
       <r>   -24.5963     0.0000    62.0000 </r>
       <r>   -24.3774     0.0000    62.0000 </r>
       <r>   -24.1585     0.0000    62.0000 </r>
       <r>   -23.9397     0.0000    62.0000 </r>
       <r>   -23.7208     0.0705    62.0154 </r>
       <r>   -23.5019    17.8941    65.9318 </r>
       <r>   -23.2831    68.6219    80.9506 </r>
       <r>   -23.0642    66.0408    95.4045 </r>
       <r>   -22.8453    12.3301    98.1032 </r>
       <r>   -22.6265    20.0622   102.4940 </r>
       <r>   -22.4076    52.4288   113.9688 </r>
       <r>   -22.1888    16.2524   117.5258 </r>
       <r>   -21.9699    58.3797   130.3030 </r>
       <r>   -21.7510    20.2675   134.7389 </r>
       <r>   -21.5322    23.2111   139.8189 </r>
       <r>   -21.3133     0.8273   140.0000 </r>
       <r>   -21.0944     0.0000   140.0000 </r>
       <r>   -20.8756     0.0000   140.0000 </r>
       <r>   -20.6567     0.0000   140.0000 </r>
       <r>   -20.4378     0.0000   140.0000 </r>
       <r>   -20.2190     0.0000   140.0000 </r>
       <r>   -20.0001     0.0000   140.0000 </r>
       <r>   -19.7813     0.0000   140.0000 </r>
       <r>   -19.5624     0.0000   140.0000 </r>
       <r>   -19.3435     0.0022   140.0005 </r>
       <r>   -19.1247     5.3526   141.1720 </r>
       <r>   -18.9058    26.4996   146.9718 </r>
       <r>   -18.6869    52.9950   158.5704 </r>
       <r>   -18.4681    65.2108   172.8427 </r>
       <r>   -18.2492    37.2713   181.0000 </r>
       <r>   -18.0303     4.5620   181.9985 </r>
       <r>   -17.8115     0.0070   182.0000 </r>
       <r>   -17.5926     0.0000   182.0000 </r>
       <r>   -17.3738     0.0000   182.0000 </r>
       <r>   -17.1549     0.0000   182.0000 </r>
       <r>   -16.9360     0.0000   182.0000 </r>
       <r>   -16.7172     0.0000   182.0000 </r>
       <r>   -16.4983     0.0000   182.0000 </r>
       <r>   -16.2794     0.0000   182.0000 </r>
       <r>   -16.0606     0.0000   182.0000 </r>
       <r>   -15.8417     0.0000   182.0000 </r>
       <r>   -15.6228     0.0000   182.0000 </r>
       <r>   -15.4040     0.0000   182.0000 </r>
       <r>   -15.1851     0.0000   182.0000 </r>
       <r>   -14.9663     0.0000   182.0000 </r>
       <r>   -14.7474     0.0000   182.0000 </r>
       <r>   -14.5285     0.0000   182.0000 </r>
       <r>   -14.3097     0.0000   182.0000 </r>
       <r>   -14.0908     0.0000   182.0000 </r>
       <r>   -13.8719     0.0000   182.0000 </r>
       <r>   -13.6531     0.0000   182.0000 </r>
       <r>   -13.4342     0.0000   182.0000 </r>
       <r>   -13.2153     0.0000   182.0000 </r>
       <r>   -12.9965     0.0000   182.0000 </r>
       <r>   -12.7776     0.0000   182.0000 </r>
       <r>   -12.5588     0.0000   182.0000 </r>
       <r>   -12.3399     0.0000   182.0000 </r>
       <r>   -12.1210     0.0000   182.0000 </r>
       <r>   -11.9022     0.0000   182.0000 </r>
       <r>   -11.6833     0.0000   182.0000 </r>
       <r>   -11.4644     0.0000   182.0000 </r>
       <r>   -11.2456     0.0000   182.0000 </r>
       <r>   -11.0267     0.0000   182.0000 </r>
       <r>   -10.8079     0.0000   182.0000 </r>
       <r>   -10.5890     0.0000   182.0000 </r>
       <r>   -10.3701     0.0000   182.0000 </r>
       <r>   -10.1513     0.0000   182.0000 </r>
       <r>    -9.9324     0.0000   182.0000 </r>
       <r>    -9.7135     0.0000   182.0000 </r>
       <r>    -9.4947     0.0000   182.0000 </r>
       <r>    -9.2758     0.0000   182.0000 </r>
       <r>    -9.0569     0.0000   182.0000 </r>
       <r>    -8.8381     0.0000   182.0000 </r>
       <r>    -8.6192     0.0000   182.0000 </r>
       <r>    -8.4004     0.0000   182.0000 </r>
       <r>    -8.1815     0.0000   182.0000 </r>
       <r>    -7.9626     0.0554   182.0121 </r>
       <r>    -7.7438     3.2207   182.7170 </r>
       <r>    -7.5249     5.9998   184.0301 </r>
       <r>    -7.3060    12.1738   186.6946 </r>
       <r>    -7.0872    11.9596   189.3121 </r>
       <r>    -6.8683    12.9536   192.1471 </r>
       <r>    -6.6494    13.2488   195.0468 </r>
       <r>    -6.4306    25.4793   200.6233 </r>
       <r>    -6.2117    23.0639   205.6712 </r>
       <r>    -5.9929    10.4019   207.9478 </r>
       <r>    -5.7740     0.2387   208.0000 </r>
       <r>    -5.5551     0.0000   208.0000 </r>
       <r>    -5.3363     0.0000   208.0000 </r>
       <r>    -5.1174     0.0000   208.0000 </r>
       <r>    -4.8985     0.0000   208.0000 </r>
       <r>    -4.6797     0.0000   208.0000 </r>
       <r>    -4.4608     0.0000   208.0000 </r>
       <r>    -4.2419     0.0000   208.0000 </r>
       <r>    -4.0231     0.1624   208.0356 </r>
       <r>    -3.8042     4.0969   208.9322 </r>
       <r>    -3.5854     5.1558   210.0606 </r>
       <r>    -3.3665     8.7080   211.9665 </r>
       <r>    -3.1476    13.5691   214.9363 </r>
       <r>    -2.9288    24.8175   220.3679 </r>
       <r>    -2.7099    26.3092   226.1260 </r>
       <r>    -2.4910    27.6649   232.1809 </r>
       <r>    -2.2722    21.8981   236.9736 </r>
       <r>    -2.0533    18.5491   241.0333 </r>
       <r>    -1.8344    12.1524   243.6930 </r>
       <r>    -1.6156     8.2747   245.5040 </r>
       <r>    -1.3967     2.1445   245.9734 </r>
       <r>    -1.1779     0.1216   246.0000 </r>
       <r>    -0.9590     0.0000   246.0000 </r>
       <r>    -0.7401     0.0000   246.0000 </r>
       <r>    -0.5213     0.0000   246.0000 </r>
       <r>    -0.3024     0.0000   246.0000 </r>
       <r>    -0.0835     0.0000   246.0000 </r>
       <r>     0.1353     0.0000   246.0000 </r>
       <r>     0.3542     0.0015   246.0003 </r>
       <r>     0.5731     0.4649   246.1021 </r>
       <r>     0.7919     2.2979   246.6050 </r>
       <r>     1.0108     9.0404   248.5836 </r>
       <r>     1.2296     9.6364   250.6927 </r>
       <r>     1.4485    14.6942   253.9087 </r>
       <r>     1.6674    17.3488   257.7057 </r>
       <r>     1.8862    22.9571   262.7302 </r>
       <r>     2.1051    28.1126   268.8830 </r>
       <r>     2.3240    26.1722   274.6112 </r>
       <r>     2.5428    29.2774   281.0189 </r>
       <r>     2.7617    34.1542   288.4940 </r>
       <r>     2.9805    37.2537   296.6475 </r>
       <r>     3.1994    40.7204   305.5597 </r>
       <r>     3.4183    47.4968   315.9550 </r>
       <r>     3.6371    52.9565   327.5453 </r>
       <r>     3.8560    64.2116   341.5988 </r>
       <r>     4.0749    67.6021   356.3944 </r>
       <r>     4.2937    68.8800   371.4698 </r>
       <r>     4.5126    62.6473   385.1810 </r>
       <r>     4.7315    54.4544   397.0991 </r>
       <r>     4.9503    44.2938   406.7934 </r>
       <r>     5.1692    35.7032   414.6075 </r>
       <r>     5.3880    28.6753   420.8835 </r>
       <r>     5.6069    25.8657   426.5445 </r>
       <r>     5.8258    18.8981   430.6806 </r>
       <r>     6.0446    17.3680   434.4819 </r>
       <r>     6.2635    12.1376   437.1383 </r>
       <r>     6.4824     7.3263   438.7418 </r>
       <r>     6.7012    14.7754   441.9756 </r>
       <r>     6.9201    17.2906   445.7599 </r>
       <r>     7.1390    14.5747   448.9497 </r>
       <r>     7.3578    15.6342   452.3715 </r>
       <r>     7.5767    17.2459   456.1460 </r>
       <r>     7.7955    16.9366   459.8528 </r>
       <r>     8.0144    18.1454   463.8241 </r>
       <r>     8.2333    19.2233   468.0314 </r>
       <r>     8.4521    19.4685   472.2924 </r>
       <r>     8.6710    19.5886   476.5796 </r>
       <r>     8.8899    21.7018   481.3293 </r>
       <r>     9.1087    23.9390   486.5687 </r>
       <r>     9.3276    29.9719   493.1284 </r>
       <r>     9.5465    33.6812   500.5000 </r>
       <r>     9.7653    35.4814   508.2656 </r>
       <r>     9.9842    37.4910   516.4710 </r>
       <r>    10.2030    39.7147   525.1631 </r>
       <r>    10.4219    40.3748   533.9997 </r>
       <r>    10.6408    41.3954   543.0596 </r>
       <r>    10.8596    43.2715   552.5302 </r>
       <r>    11.0785    44.0986   562.1817 </r>
       <r>    11.2974    44.9946   572.0294 </r>
       <r>    11.5162    43.4524   581.5396 </r>
       <r>    11.7351    45.4636   591.4899 </r>
       <r>    11.9540    46.9337   601.7620 </r>
       <r>    12.1728    40.8591   610.7045 </r>
       <r>    12.3917    19.8466   615.0482 </r>
       <r>    12.6105     4.3095   615.9914 </r>
       <r>    12.8294     0.0394   616.0000 </r>
       <r>    13.0483     0.0000   616.0000 </r>
       <r>    13.2671     0.0000   616.0000 </r>
       <r>    13.4860     0.0000   616.0000 </r>
       <r>    13.7049     0.0000   616.0000 </r>
       <r>    13.9237     0.0000   616.0000 </r>
       <r>    14.1426     0.0000   616.0000 </r>
       <r>    14.3615     0.0000   616.0000 </r>
       <r>    14.5803     0.0000   616.0000 </r>
       <r>    14.7992     0.0000   616.0000 </r>
       <r>    15.0180     0.0000   616.0000 </r>
       <r>    15.2369     0.0000   616.0000 </r>
       <r>    15.4558     0.0000   616.0000 </r>
      </set>
     </set>
    </array>
   </total>
  </dos>
 </calculation>
 <structure name="finalpos" >
  <crystal>
   <varray name="basis" >
    <v>       9.04055970      -0.00932895       0.01002011 </v>
    <v>      -0.00366727       9.06022132       0.00208428 </v>
    <v>       0.04251710      -0.01362098       9.01874590 </v>
   </varray>
   <i name="volume">    738.71680030 </i>
   <varray name="rec_basis" >
    <v>       0.11061324       0.00004489      -0.00052140 </v>
    <v>       0.00011371       0.11037259       0.00016616 </v>
    <v>      -0.00012292      -0.00002556       0.11088070 </v>
   </varray>
  </crystal>
  <varray name="positions" >
   <v>       0.99610228       0.99888950       0.99985293 </v>
   <v>       0.25021796       0.00043758       0.25136533 </v>
   <v>       0.24948626       0.49985398       0.25084061 </v>
   <v>       0.50062085       0.50191308       0.99898974 </v>
   <v>       0.50116898       0.24591919       0.74340053 </v>
   <v>       0.99772141       0.49990968       0.49971658 </v>
   <v>       0.49835503       0.75420368       0.74953520 </v>
   <v>       0.98742554       0.23106064       0.26822359 </v>
   <v>       0.76950366       0.73737382       0.99692510 </v>
   <v>       0.01946498       0.27594811       0.75101330 </v>
   <v>       0.76974778       0.25878685       0.47915257 </v>
   <v>       0.99123972       0.73278810       0.75411693 </v>
   <v>       0.26271928       0.48757816       0.74842319 </v>
   <v>       0.24422724       0.25226809       0.99488569 </v>
   <v>       0.50356217       0.25627486       0.25309434 </v>
   <v>       0.74859116       0.99892756       0.25435250 </v>
   <v>       0.75711458       0.25781164       0.99236204 </v>
   <v>       0.24221262       0.74766487       0.99709853 </v>
   <v>       0.24564812       0.25115068       0.50481123 </v>
   <v>       0.24432054       0.74937579       0.50444093 </v>
   <v>       0.24973359       0.24847776       0.25211971 </v>
   <v>       0.25631985       0.99993090       0.99478590 </v>
   <v>       0.00056814       0.25418909       0.01124906 </v>
   <v>       0.74966111       0.24885613       0.24229981 </v>
   <v>       0.74345607       0.00207033       0.99668176 </v>
   <v>       0.50259972       0.00079732       0.24901113 </v>
   <v>       0.99483309       0.49665325       0.24348684 </v>
   <v>       0.49658571       0.76079827       0.00356272 </v>
   <v>       0.99922548       0.00098310       0.74856858 </v>
   <v>       0.75754035       0.23757603       0.74904147 </v>
   <v>       0.74443951       0.00200651       0.50402628 </v>
   <v>       0.50174961       0.24079925       0.49541448 </v>
   <v>       0.50636466       0.00017362       0.75021148 </v>
   <v>       0.99581993       0.99763590       0.25415740 </v>
   <v>       0.50362391       0.24245791       0.00118268 </v>
   <v>       0.25100049       0.75107224       0.24948322 </v>
   <v>       0.24405085       0.49941884       0.99723960 </v>
   <v>       0.99998818       0.74602123       0.00150551 </v>
   <v>       0.74688024       0.74832470       0.24585023 </v>
   <v>       0.75717692       0.50181611       0.99952573 </v>
   <v>       0.50297445       0.50209831       0.25279483 </v>
   <v>       0.25334428       0.24498662       0.74942456 </v>
   <v>       0.25047102       0.99996669       0.50518286 </v>
   <v>       0.99507414       0.24856060       0.51405754 </v>
   <v>       0.24339030       0.75531799       0.75102143 </v>
   <v>       0.25251482       0.49963773       0.50370374 </v>
   <v>       0.99537662       0.75482811       0.50403365 </v>
   <v>       0.00256656       0.50122981       0.75358983 </v>
   <v>       0.74891750       0.75250965       0.75000268 </v>
   <v>       0.74675320       0.49553207       0.50069827 </v>
   <v>       0.49864065       0.75055798       0.49697948 </v>
   <v>       0.50174110       0.50002762       0.74579760 </v>
   <v>       0.50238123       0.00680699       0.00800620 </v>
   <v>       0.99874135       0.50477816       0.99932037 </v>
   <v>       0.50118785       0.74434994       0.25216830 </v>
   <v>       0.23027027       0.00367591       0.74629842 </v>
   <v>       0.49358791       0.98799149       0.49022658 </v>
   <v>       0.76504169       0.98787321       0.74487807 </v>
   <v>       0.99633129       0.76356318       0.25320383 </v>
   <v>       0.74594536       0.50226246       0.25315623 </v>
   <v>       0.99916560       0.00292150       0.49924742 </v>
   <v>       0.49989752       0.51270644       0.49948037 </v>
   <v>       0.74219905       0.51697167       0.74779824 </v>
   <v>       0.75241908       0.74265125       0.49692522 </v>
  </varray>
 </structure>
</modeling>
