HECN                                    
           1
     9.039729   -0.008797    0.009535
    -0.003133    9.060330    0.001168
     0.042028   -0.014531    9.018239
   Zr   Mo   Hf   N    C    Ta   Nb
     7     6     7    13    19     6     6
Direct configuration=     1
   0.99614388  0.99888572  0.99985940
   0.25018339  0.00044227  0.25139747
   0.24945717  0.49987491  0.25085290
   0.50064117  0.50190099  0.99899695
   0.50116791  0.24589837  0.74339623
   0.99770083  0.49993588  0.49972288
   0.49836155  0.75421905  0.74951196
   0.98742321  0.23107217  0.26824219
   0.76951960  0.73738255  0.99688472
   0.01948111  0.27592937  0.75096238
   0.76975127  0.25884506  0.47914419
   0.99122308  0.73279627  0.75415907
   0.26269579  0.48755306  0.74841205
   0.24425967  0.25226850  0.99487845
   0.50355731  0.25630059  0.25307916
   0.74861405  0.99891642  0.25429125
   0.75709901  0.25779145  0.99235448
   0.24219828  0.74767776  0.99708613
   0.24565374  0.25114586  0.50479551
   0.24430152  0.74938844  0.50442604
   0.24973189  0.24849423  0.25210920
   0.25632949  0.99993294  0.99481244
   0.00057065  0.25421950  0.01124952
   0.74967704  0.24885476  0.24227306
   0.74344934  0.00206690  0.99667574
   0.50259787  0.00080995  0.24902777
   0.99485014  0.49666995  0.24350717
   0.49658685  0.76079586  0.00355541
   0.99921959  0.00098963  0.74860118
   0.75754448  0.23755138  0.74904244
   0.74443672  0.00198612  0.50401924
   0.50177382  0.24081808  0.49540614
   0.50636333  0.00016967  0.75022397
   0.99583756  0.99762249  0.25416458
   0.50362357  0.24246183  0.00120418
   0.25099659  0.75108695  0.24947487
   0.24405054  0.49943566  0.99725344
   0.00000910  0.74602004  0.00150828
   0.74687140  0.74830530  0.24584709
   0.75718105  0.50182894  0.99954172
   0.50298611  0.50211111  0.25279214
   0.25335381  0.24497162  0.74942572
   0.25047022  0.99998366  0.50516186
   0.99503040  0.24856423  0.51402762
   0.24337191  0.75531753  0.75100381
   0.25251330  0.49964993  0.50369820
   0.99536418  0.75482110  0.50402525
   0.00256329  0.50124239  0.75361286
   0.74890626  0.75248222  0.74997241
   0.74676521  0.49555246  0.50073077
   0.49863831  0.75054242  0.49697020
   0.50173750  0.50003609  0.74580179
   0.50233875  0.00681899  0.00806253
   0.99873704  0.50480607  0.99932456
   0.50120491  0.74431592  0.25221235
   0.23028326  0.00369011  0.74627153
   0.49361013  0.98797346  0.49016878
   0.76506547  0.98786272  0.74491119
   0.99630345  0.76351619  0.25317624
   0.74599579  0.50219872  0.25316053
   0.99909008  0.00293078  0.49930503
   0.49991922  0.51265534  0.49948823
   0.74224606  0.51696646  0.74781963
   0.75237115  0.74264536  0.49692604
HECN                                    
           1
     9.040246   -0.009205    0.009972
    -0.003543    9.059598    0.001937
     0.042467   -0.013766    9.018443
   Zr   Mo   Hf   N    C    Ta   Nb
     7     6     7    13    19     6     6
Direct configuration=     2
   0.99611906  0.99888237  0.99986020
   0.25020549  0.00043393  0.25137571
   0.24948006  0.49985883  0.25084422
   0.50062613  0.50190598  0.99898994
   0.50116576  0.24590902  0.74340285
   0.99772151  0.49991186  0.49972375
   0.49835680  0.75420060  0.74952825
   0.98742480  0.23105801  0.26823038
   0.76950346  0.73737194  0.99690899
   0.01947378  0.27593984  0.75099232
   0.76974013  0.25880098  0.47914361
   0.99123571  0.73278703  0.75413365
   0.26271093  0.48756351  0.74842023
   0.24423647  0.25226770  0.99488635
   0.50356135  0.25628303  0.25308959
   0.74860271  0.99892047  0.25433204
   0.75711108  0.25780267  0.99236322
   0.24221654  0.74766314  0.99709480
   0.24564658  0.25114776  0.50480698
   0.24431805  0.74937936  0.50443490
   0.24973367  0.24848062  0.25211704
   0.25632226  0.99992946  0.99479345
   0.00056977  0.25419770  0.01124880
   0.74966580  0.24885029  0.24229125
   0.74345458  0.00206615  0.99667959
   0.50259924  0.00079803  0.24901578
   0.99484018  0.49665874  0.24349305
   0.49658857  0.76079600  0.00356181
   0.99922422  0.00098261  0.74858255
   0.75754410  0.23756703  0.74904102
   0.74443619  0.00199764  0.50402533
   0.50175715  0.24080526  0.49541151
   0.50636444  0.00016856  0.75021621
   0.99582164  0.99762200  0.25416719
   0.50362472  0.24245491  0.00118919
   0.25100060  0.75107273  0.24948282
   0.24405103  0.49942119  0.99724130
   0.99999315  0.74601822  0.00150419
   0.74687668  0.74831548  0.24584812
   0.75718110  0.50181385  0.99953114
   0.50298121  0.50209797  0.25279495
   0.25334696  0.24498033  0.74942274
   0.25046998  0.99996804  0.50518293
   0.99506824  0.24856643  0.51405402
   0.24338359  0.75531685  0.75101510
   0.25251364  0.49963587  0.50370468
   0.99536973  0.75482488  0.50403355
   0.00256851  0.50122688  0.75359644
   0.74891986  0.75249030  0.74999532
   0.74675777  0.49553807  0.50070777
   0.49863716  0.75054391  0.49697743
   0.50174397  0.50002440  0.74580041
   0.50236398  0.00680821  0.00802533
   0.99874215  0.50478394  0.99931991
   0.50119469  0.74432976  0.25218304
   0.23028070  0.00367845  0.74628746
   0.49359879  0.98798260  0.49020821
   0.76504330  0.98786093  0.74489055
   0.99633442  0.76363788  0.25322172
   0.74591308  0.50227937  0.25318808
   0.99919319  0.00289626  0.49918900
   0.49989737  0.51276952  0.49947505
   0.74214128  0.51708230  0.74781170
   0.75243131  0.74257209  0.49691146
HECN                                    
           1
     9.040109   -0.009097    0.009856
    -0.003435    9.059791    0.001734
     0.042351   -0.013968    9.018389
   Zr   Mo   Hf   N    C    Ta   Nb
     7     6     7    13    19     6     6
Direct configuration=     3
   0.99612561  0.99888326  0.99985999
   0.25019965  0.00043613  0.25138145
   0.24947401  0.49986308  0.25084651
   0.50063010  0.50190466  0.99899179
   0.50116633  0.24590621  0.74340110
   0.99771605  0.49991820  0.49972352
   0.49835805  0.75420547  0.74952395
   0.98742438  0.23106175  0.26823350
   0.76950772  0.73737474  0.99690258
   0.01947571  0.27593708  0.75098442
   0.76974307  0.25881261  0.47914377
   0.99123238  0.73278947  0.75414036
   0.26270694  0.48756075  0.74841807
   0.24424260  0.25226791  0.99488426
   0.50356028  0.25628767  0.25308684
   0.74860571  0.99891940  0.25432127
   0.75710790  0.25779971  0.99236092
   0.24221172  0.74766700  0.99709251
   0.24564847  0.25114726  0.50480395
   0.24431369  0.74938175  0.50443256
   0.24973320  0.24848421  0.25211497
   0.25632417  0.99993038  0.99479846
   0.00057000  0.25420346  0.01124899
   0.74966876  0.24885147  0.24228645
   0.74345319  0.00206634  0.99667857
   0.50259887  0.00080118  0.24901895
   0.99484281  0.49666170  0.24349678
   0.49658811  0.76079596  0.00356012
   0.99922300  0.00098446  0.74858747
   0.75754420  0.23756290  0.74904139
   0.74443633  0.00199460  0.50402372
   0.50176155  0.24080865  0.49541009
   0.50636415  0.00016885  0.75021826
   0.99582584  0.99762213  0.25416650
   0.50362442  0.24245674  0.00119315
   0.25099954  0.75107648  0.24948072
   0.24405090  0.49942501  0.99724450
   0.99999736  0.74601870  0.00150527
   0.74687528  0.74831279  0.24584785
   0.75718109  0.50181783  0.99953394
   0.50298251  0.50210144  0.25279421
   0.25334877  0.24497803  0.74942353
   0.25047005  0.99997216  0.50517737
   0.99505825  0.24856585  0.51404705
   0.24338051  0.75531703  0.75101212
   0.25251355  0.49963958  0.50370297
   0.99536826  0.75482389  0.50403136
   0.00256713  0.50123097  0.75360077
   0.74891627  0.75248817  0.74998927
   0.74675973  0.49554187  0.50071384
   0.49863747  0.75054352  0.49697552
   0.50174226  0.50002749  0.74580077
   0.50235732  0.00681105  0.00803515
   0.99874080  0.50478978  0.99932114
   0.50119739  0.74432611  0.25219078
   0.23028138  0.00368153  0.74628325
   0.49360178  0.98798019  0.49019780
   0.76504915  0.98786140  0.74489600
   0.99632625  0.76360575  0.25320971
   0.74593491  0.50225808  0.25318081
   0.99916597  0.00290538  0.49921963
   0.49990314  0.51273937  0.49947853
   0.74216894  0.51705172  0.74781380
   0.75241543  0.74259144  0.49691531
HECN                                    
           1
     9.040076   -0.009071    0.009828
    -0.003408    9.059839    0.001685
     0.042323   -0.014017    9.018376
   Zr   Mo   Hf   N    C    Ta   Nb
     7     6     7    13    19     6     6
Direct configuration=     4
   0.99612721  0.99888347  0.99985994
   0.25019823  0.00043667  0.25138286
   0.24947254  0.49986411  0.25084707
   0.50063107  0.50190434  0.99899224
   0.50116646  0.24590552  0.74340068
   0.99771472  0.49991975  0.49972346
   0.49835836  0.75420666  0.74952290
   0.98742428  0.23106266  0.26823426
   0.76950876  0.73737542  0.99690101
   0.01947619  0.27593640  0.75098249
   0.76974379  0.25881546  0.47914380
   0.99123156  0.73279006  0.75414200
   0.26270596  0.48756008  0.74841755
   0.24424409  0.25226796  0.99488375
   0.50356002  0.25628880  0.25308617
   0.74860644  0.99891914  0.25431864
   0.75710712  0.25779899  0.99236035
   0.24221054  0.74766794  0.99709195
   0.24564894  0.25114714  0.50480321
   0.24431262  0.74938234  0.50443199
   0.24973308  0.24848509  0.25211446
   0.25632464  0.99993061  0.99479969
   0.00057006  0.25420486  0.01124904
   0.74966949  0.24885176  0.24228527
   0.74345286  0.00206639  0.99667832
   0.50259879  0.00080195  0.24901972
   0.99484346  0.49666242  0.24349769
   0.49658800  0.76079596  0.00355971
   0.99922270  0.00098492  0.74858867
   0.75754423  0.23756189  0.74904148
   0.74443636  0.00199386  0.50402333
   0.50176263  0.24080947  0.49540974
   0.50636407  0.00016893  0.75021876
   0.99582687  0.99762216  0.25416633
   0.50362434  0.24245718  0.00119412
   0.25099928  0.75107740  0.24948021
   0.24405087  0.49942594  0.99724529
   0.99999839  0.74601882  0.00150553
   0.74687494  0.74831213  0.24584778
   0.75718109  0.50181881  0.99953462
   0.50298282  0.50210229  0.25279403
   0.25334921  0.24497747  0.74942372
   0.25047006  0.99997317  0.50517601
   0.99505581  0.24856570  0.51404535
   0.24337976  0.75531707  0.75101139
   0.25251353  0.49964049  0.50370255
   0.99536790  0.75482364  0.50403082
   0.00256679  0.50123197  0.75360183
   0.74891540  0.75248765  0.74998780
   0.74676021  0.49554280  0.50071532
   0.49863754  0.75054342  0.49697505
   0.50174185  0.50002824  0.74580086
   0.50235569  0.00681175  0.00803755
   0.99874047  0.50479121  0.99932144
   0.50119804  0.74432522  0.25219267
   0.23028154  0.00368228  0.74628222
   0.49360251  0.98797960  0.49019526
   0.76505058  0.98786152  0.74489733
   0.99632425  0.76359789  0.25320678
   0.74594025  0.50225288  0.25317903
   0.99915932  0.00290760  0.49922712
   0.49990455  0.51273200  0.49947938
   0.74217570  0.51704424  0.74781431
   0.75241154  0.74259616  0.49691625
HECN                                    
           1
     9.039902   -0.008934    0.009682
    -0.003270    9.060084    0.001426
     0.042176   -0.014274    9.018307
   Zr   Mo   Hf   N    C    Ta   Nb
     7     6     7    13    19     6     6
Direct configuration=     5
   0.99613555  0.99888460  0.99985967
   0.25019081  0.00043947  0.25139016
   0.24946485  0.49986951  0.25084998
   0.50063612  0.50190266  0.99899459
   0.50116719  0.24590195  0.74339845
   0.99770777  0.49992782  0.49972317
   0.49835996  0.75421286  0.74951743
   0.98742374  0.23106741  0.26823822
   0.76951418  0.73737899  0.99689287
   0.01947865  0.27593289  0.75097243
   0.76974753  0.25883026  0.47914400
   0.99122732  0.73279317  0.75415053
   0.26270088  0.48755657  0.74841480
   0.24425188  0.25226823  0.99488110
   0.50355867  0.25629470  0.25308267
   0.74861025  0.99891778  0.25430495
   0.75710306  0.25779522  0.99235742
   0.24220441  0.74767285  0.99708904
   0.24565134  0.25114650  0.50479936
   0.24430708  0.74938539  0.50442901
   0.24973249  0.24848966  0.25211183
   0.25632706  0.99993177  0.99480606
   0.00057036  0.25421218  0.01124928
   0.74967326  0.24885326  0.24227917
   0.74345110  0.00206665  0.99667703
   0.50259833  0.00080595  0.24902374
   0.99484680  0.49666619  0.24350243
   0.49658743  0.76079591  0.00355756
   0.99922114  0.00098727  0.74859492
   0.75754435  0.23755663  0.74904196
   0.74443654  0.00198999  0.50402129
   0.50176822  0.24081378  0.49540794
   0.50636370  0.00016930  0.75022136
   0.99583221  0.99762232  0.25416546
   0.50362395  0.24245950  0.00119915
   0.25099794  0.75108218  0.24947754
   0.24405070  0.49943080  0.99724936
   0.00000374  0.74601943  0.00150690
   0.74687317  0.74830872  0.24584744
   0.75718107  0.50182387  0.99953817
   0.50298446  0.50210670  0.25279308
   0.25335151  0.24497455  0.74942472
   0.25047014  0.99997842  0.50516893
   0.99504311  0.24856497  0.51403649
   0.24337583  0.75531730  0.75100760
   0.25251342  0.49964521  0.50370038
   0.99536604  0.75482237  0.50402804
   0.00256504  0.50123718  0.75360735
   0.74891083  0.75248494  0.74998011
   0.74676271  0.49554763  0.50072305
   0.49863793  0.75054292  0.49697263
   0.50173967  0.50003217  0.74580133
   0.50234722  0.00681537  0.00805004
   0.99873875  0.50479864  0.99932300
   0.50120148  0.74432057  0.25220251
   0.23028240  0.00368619  0.74627688
   0.49360632  0.98797653  0.49018202
   0.76505802  0.98786212  0.74490426
   0.99631385  0.76355704  0.25319151
   0.74596802  0.50222580  0.25316978
   0.99912470  0.00291919  0.49926607
   0.49991188  0.51269367  0.49948381
   0.74221087  0.51700535  0.74781697
   0.75239135  0.74262076  0.49692114
HECN                                    
           1
     9.039990   -0.009003    0.009756
    -0.003340    9.059960    0.001557
     0.042250   -0.014144    9.018342
   Zr   Mo   Hf   N    C    Ta   Nb
     7     6     7    13    19     6     6
Direct configuration=     6
   0.99613132  0.99888403  0.99985980
   0.25019457  0.00043805  0.25138646
   0.24946875  0.49986677  0.25084851
   0.50063356  0.50190351  0.99899340
   0.50116682  0.24590376  0.74339958
   0.99771130  0.49992373  0.49972332
   0.49835915  0.75420972  0.74952020
   0.98742401  0.23106500  0.26823621
   0.76951143  0.73737718  0.99689700
   0.01947740  0.27593467  0.75097753
   0.76974564  0.25882275  0.47914390
   0.99122947  0.73279159  0.75414620
   0.26270345  0.48755835  0.74841619
   0.24424793  0.25226809  0.99488245
   0.50355935  0.25629170  0.25308444
   0.74860831  0.99891847  0.25431189
   0.75710512  0.25779713  0.99235891
   0.24220752  0.74767036  0.99709052
   0.24565012  0.25114682  0.50480132
   0.24430989  0.74938384  0.50443052
   0.24973279  0.24848734  0.25211317
   0.25632583  0.99993118  0.99480283
   0.00057021  0.25420847  0.01124916
   0.74967135  0.24885250  0.24228226
   0.74345199  0.00206652  0.99667769
   0.50259856  0.00080392  0.24902170
   0.99484510  0.49666428  0.24350002
   0.49658772  0.76079593  0.00355865
   0.99922193  0.00098608  0.74859175
   0.75754429  0.23755930  0.74904172
   0.74443645  0.00199195  0.50402232
   0.50176538  0.24081160  0.49540886
   0.50636389  0.00016911  0.75022004
   0.99582950  0.99762224  0.25416590
   0.50362415  0.24245833  0.00119660
   0.25099862  0.75107975  0.24947889
   0.24405079  0.49942834  0.99724729
   0.00000103  0.74601912  0.00150621
   0.74687407  0.74831045  0.24584761
   0.75718108  0.50182130  0.99953637
   0.50298363  0.50210446  0.25279356
   0.25335034  0.24497603  0.74942421
   0.25047010  0.99997576  0.50517252
   0.99504955  0.24856534  0.51404098
   0.24337782  0.75531719  0.75100952
   0.25251347  0.49964282  0.50370148
   0.99536699  0.75482302  0.50402945
   0.00256593  0.50123454  0.75360455
   0.74891315  0.75248631  0.74998401
   0.74676145  0.49554518  0.50071913
   0.49863773  0.75054317  0.49697386
   0.50174077  0.50003018  0.74580109
   0.50235152  0.00681353  0.00804370
   0.99873962  0.50479487  0.99932221
   0.50119974  0.74432293  0.25219752
   0.23028197  0.00368421  0.74627959
   0.49360439  0.98797809  0.49018873
   0.76505425  0.98786181  0.74490074
   0.99631913  0.76357777  0.25319926
   0.74595393  0.50223954  0.25317447
   0.99914226  0.00291331  0.49924631
   0.49990816  0.51271312  0.49948157
   0.74219303  0.51702508  0.74781562
   0.75240159  0.74260828  0.49691866
HECN                                    
           1
     9.039937   -0.008961    0.009711
    -0.003298    9.060036    0.001477
     0.042205   -0.014223    9.018321
   Zr   Mo   Hf   N    C    Ta   Nb
     7     6     7    13    19     6     6
Direct configuration=     7
   0.99613390  0.99888437  0.99985972
   0.25019227  0.00043892  0.25138872
   0.24946637  0.49986844  0.25084941
   0.50063512  0.50190299  0.99899413
   0.50116705  0.24590265  0.74339889
   0.99770915  0.49992622  0.49972323
   0.49835964  0.75421164  0.74951851
   0.98742385  0.23106647  0.26823744
   0.76951311  0.73737829  0.99689448
   0.01947816  0.27593358  0.75097442
   0.76974679  0.25882734  0.47914396
   0.99122816  0.73279255  0.75414885
   0.26270188  0.48755726  0.74841534
   0.24425034  0.25226818  0.99488163
   0.50355893  0.25629353  0.25308336
   0.74860949  0.99891805  0.25430765
   0.75710387  0.25779596  0.99235800
   0.24220562  0.74767188  0.99708962
   0.24565086  0.25114662  0.50480012
   0.24430817  0.74938479  0.50442960
   0.24973261  0.24848876  0.25211235
   0.25632658  0.99993154  0.99480480
   0.00057030  0.25421074  0.01124923
   0.74967252  0.24885297  0.24228037
   0.74345144  0.00206660  0.99667729
   0.50259842  0.00080516  0.24902295
   0.99484614  0.49666544  0.24350149
   0.49658754  0.76079592  0.00355798
   0.99922145  0.00098681  0.74859369
   0.75754433  0.23755767  0.74904187
   0.74443651  0.00199075  0.50402169
   0.50176712  0.24081293  0.49540830
   0.50636377  0.00016922  0.75022085
   0.99583116  0.99762229  0.25416563
   0.50362403  0.24245905  0.00119816
   0.25099820  0.75108123  0.24947806
   0.24405074  0.49942984  0.99724856
   0.00000269  0.74601931  0.00150663
   0.74687352  0.74830939  0.24584750
   0.75718107  0.50182287  0.99953747
   0.50298414  0.50210583  0.25279327
   0.25335106  0.24497512  0.74942452
   0.25047012  0.99997738  0.50517033
   0.99504562  0.24856511  0.51403824
   0.24337661  0.75531726  0.75100835
   0.25251344  0.49964428  0.50370081
   0.99536641  0.75482262  0.50402859
   0.00256539  0.50123615  0.75360626
   0.74891173  0.75248547  0.74998163
   0.74676222  0.49554667  0.50072152
   0.49863785  0.75054302  0.49697311
   0.50174010  0.50003139  0.74580124
   0.50234889  0.00681466  0.00804757
   0.99873909  0.50479717  0.99932269
   0.50120080  0.74432149  0.25220056
   0.23028223  0.00368542  0.74627793
   0.49360557  0.98797714  0.49018463
   0.76505655  0.98786200  0.74490289
   0.99631590  0.76356511  0.25319453
   0.74596253  0.50223115  0.25317161
   0.99913154  0.00291690  0.49925838
   0.49991043  0.51270124  0.49948294
   0.74220393  0.51701303  0.74781645
   0.75239534  0.74261591  0.49692017
HECN                                    
           1
     9.039965   -0.008983    0.009735
    -0.003320    9.059995    0.001520
     0.042229   -0.014181    9.018332
   Zr   Mo   Hf   N    C    Ta   Nb
     7     6     7    13    19     6     6
Direct configuration=     8
   0.99613252  0.99888419  0.99985977
   0.25019350  0.00043846  0.25138751
   0.24946764  0.49986755  0.25084893
   0.50063429  0.50190327  0.99899374
   0.50116693  0.24590325  0.74339926
   0.99771030  0.49992489  0.49972328
   0.49835938  0.75421061  0.74951941
   0.98742394  0.23106569  0.26823678
   0.76951222  0.73737770  0.99689582
   0.01947775  0.27593416  0.75097608
   0.76974617  0.25882489  0.47914393
   0.99122886  0.73279204  0.75414743
   0.26270272  0.48755784  0.74841580
   0.24424905  0.25226813  0.99488207
   0.50355916  0.25629256  0.25308394
   0.74860886  0.99891828  0.25430992
   0.75710454  0.25779659  0.99235848
   0.24220663  0.74767107  0.99709010
   0.24565047  0.25114673  0.50480076
   0.24430909  0.74938428  0.50443009
   0.24973270  0.24848800  0.25211279
   0.25632618  0.99993135  0.99480375
   0.00057025  0.25420952  0.01124919
   0.74967189  0.24885272  0.24228138
   0.74345174  0.00206655  0.99667750
   0.50259849  0.00080450  0.24902228
   0.99484559  0.49666482  0.24350071
   0.49658764  0.76079592  0.00355834
   0.99922171  0.00098642  0.74859265
   0.75754431  0.23755854  0.74904179
   0.74443648  0.00199139  0.50402203
   0.50176619  0.24081222  0.49540860
   0.50636384  0.00016916  0.75022042
   0.99583027  0.99762227  0.25416578
   0.50362410  0.24245866  0.00119732
   0.25099842  0.75108044  0.24947851
   0.24405076  0.49942904  0.99724788
   0.00000180  0.74601921  0.00150640
   0.74687382  0.74830996  0.24584756
   0.75718108  0.50182203  0.99953688
   0.50298387  0.50210510  0.25279342
   0.25335067  0.24497561  0.74942436
   0.25047011  0.99997651  0.50517150
   0.99504772  0.24856523  0.51403971
   0.24337726  0.75531722  0.75100898
   0.25251346  0.49964350  0.50370117
   0.99536672  0.75482283  0.50402905
   0.00256568  0.50123529  0.75360535
   0.74891249  0.75248592  0.74998290
   0.74676181  0.49554587  0.50072024
   0.49863779  0.75054310  0.49697351
   0.50174046  0.50003074  0.74580116
   0.50235030  0.00681406  0.00804551
   0.99873938  0.50479594  0.99932243
   0.50120023  0.74432226  0.25219894
   0.23028209  0.00368477  0.74627882
   0.49360494  0.98797764  0.49018682
   0.76505532  0.98786190  0.74490174
   0.99631762  0.76357187  0.25319706
   0.74595794  0.50223563  0.25317314
   0.99913727  0.00291498  0.49925193
   0.49990922  0.51270759  0.49948221
   0.74219810  0.51701947  0.74781601
   0.75239868  0.74261183  0.49691936
HECN                                    
           1
     9.039951   -0.008972    0.009723
    -0.003309    9.060016    0.001499
     0.042217   -0.014202    9.018327
   Zr   Mo   Hf   N    C    Ta   Nb
     7     6     7    13    19     6     6
Direct configuration=     9
   0.99613321  0.99888428  0.99985974
   0.25019289  0.00043869  0.25138812
   0.24946701  0.49986800  0.25084917
   0.50063470  0.50190313  0.99899393
   0.50116699  0.24590295  0.74339908
   0.99770972  0.49992556  0.49972325
   0.49835951  0.75421112  0.74951896
   0.98742389  0.23106608  0.26823711
   0.76951266  0.73737799  0.99689515
   0.01947796  0.27593387  0.75097525
   0.76974648  0.25882611  0.47914394
   0.99122851  0.73279230  0.75414814
   0.26270230  0.48755755  0.74841557
   0.24424970  0.25226815  0.99488185
   0.50355905  0.25629304  0.25308365
   0.74860918  0.99891816  0.25430878
   0.75710420  0.25779628  0.99235824
   0.24220613  0.74767147  0.99708986
   0.24565066  0.25114668  0.50480044
   0.24430863  0.74938453  0.50442984
   0.24973266  0.24848838  0.25211257
   0.25632638  0.99993144  0.99480428
   0.00057027  0.25421013  0.01124921
   0.74967221  0.24885284  0.24228088
   0.74345159  0.00206658  0.99667739
   0.50259846  0.00080483  0.24902262
   0.99484586  0.49666513  0.24350110
   0.49658759  0.76079592  0.00355816
   0.99922158  0.00098661  0.74859317
   0.75754432  0.23755811  0.74904183
   0.74443649  0.00199107  0.50402186
   0.50176665  0.24081257  0.49540845
   0.50636381  0.00016919  0.75022063
   0.99583072  0.99762228  0.25416570
   0.50362406  0.24245885  0.00119774
   0.25099831  0.75108084  0.24947829
   0.24405075  0.49942944  0.99724822
   0.00000224  0.74601926  0.00150652
   0.74687367  0.74830967  0.24584753
   0.75718108  0.50182245  0.99953717
   0.50298400  0.50210546  0.25279335
   0.25335086  0.24497536  0.74942444
   0.25047012  0.99997695  0.50517092
   0.99504667  0.24856517  0.51403897
   0.24337693  0.75531724  0.75100866
   0.25251345  0.49964389  0.50370099
   0.99536656  0.75482273  0.50402882
   0.00256553  0.50123572  0.75360580
   0.74891211  0.75248570  0.74998226
   0.74676201  0.49554627  0.50072088
   0.49863782  0.75054306  0.49697331
   0.50174028  0.50003107  0.74580120
   0.50234960  0.00681436  0.00804654
   0.99873924  0.50479656  0.99932256
   0.50120052  0.74432187  0.25219975
   0.23028216  0.00368510  0.74627838
   0.49360525  0.98797739  0.49018573
   0.76505594  0.98786195  0.74490232
   0.99631676  0.76356849  0.25319579
   0.74596023  0.50223339  0.25317237
   0.99913440  0.00291594  0.49925515
   0.49990982  0.51270441  0.49948257
   0.74220102  0.51701625  0.74781623
   0.75239701  0.74261387  0.49691977
HECN                                    
           1
     9.039956   -0.008976    0.009727
    -0.003313    9.060008    0.001507
     0.042222   -0.014194    9.018329
   Zr   Mo   Hf   N    C    Ta   Nb
     7     6     7    13    19     6     6
Direct configuration=    10
   0.99613295  0.99888425  0.99985975
   0.25019312  0.00043860  0.25138789
   0.24946725  0.49986783  0.25084908
   0.50063455  0.50190319  0.99899386
   0.50116696  0.24590306  0.74339915
   0.99770994  0.49992531  0.49972326
   0.49835946  0.75421093  0.74951913
   0.98742391  0.23106593  0.26823699
   0.76951250  0.73737788  0.99689540
   0.01947788  0.27593398  0.75097556
   0.76974637  0.25882565  0.47914394
   0.99122864  0.73279220  0.75414787
   0.26270246  0.48755766  0.74841565
   0.24424945  0.25226815  0.99488193
   0.50355909  0.25629286  0.25308376
   0.74860906  0.99891821  0.25430921
   0.75710433  0.25779639  0.99235833
   0.24220632  0.74767132  0.99708995
   0.24565059  0.25114670  0.50480056
   0.24430880  0.74938444  0.50442994
   0.24973267  0.24848824  0.25211265
   0.25632631  0.99993141  0.99480408
   0.00057026  0.25420990  0.01124920
   0.74967209  0.24885280  0.24228107
   0.74345164  0.00206657  0.99667743
   0.50259847  0.00080470  0.24902249
   0.99484576  0.49666502  0.24350095
   0.49658761  0.76079592  0.00355823
   0.99922163  0.00098654  0.74859298
   0.75754431  0.23755827  0.74904181
   0.74443649  0.00199119  0.50402192
   0.50176648  0.24081244  0.49540850
   0.50636382  0.00016918  0.75022055
   0.99583055  0.99762227  0.25416573
   0.50362408  0.24245878  0.00119758
   0.25099836  0.75108069  0.24947837
   0.24405076  0.49942929  0.99724809
   0.00000208  0.74601924  0.00150647
   0.74687372  0.74830978  0.24584754
   0.75718108  0.50182230  0.99953706
   0.50298395  0.50210533  0.25279337
   0.25335079  0.24497546  0.74942441
   0.25047012  0.99997678  0.50517114
   0.99504707  0.24856520  0.51403925
   0.24337706  0.75531723  0.75100878
   0.25251345  0.49964374  0.50370106
   0.99536662  0.75482277  0.50402891
   0.00256559  0.50123556  0.75360563
   0.74891225  0.75248578  0.74998250
   0.74676194  0.49554612  0.50072064
   0.49863781  0.75054308  0.49697338
   0.50174035  0.50003095  0.74580118
   0.50234986  0.00681424  0.00804615
   0.99873929  0.50479633  0.99932251
   0.50120041  0.74432201  0.25219944
   0.23028214  0.00368498  0.74627854
   0.49360513  0.98797749  0.49018614
   0.76505571  0.98786193  0.74490210
   0.99631709  0.76356976  0.25319627
   0.74595937  0.50223423  0.25317266
   0.99913548  0.00291558  0.49925394
   0.49990960  0.51270560  0.49948243
   0.74219992  0.51701746  0.74781614
   0.75239764  0.74261310  0.49691962
HECN                                    
           1
     9.039953   -0.008974    0.009725
    -0.003311    9.060012    0.001502
     0.042219   -0.014199    9.018328
   Zr   Mo   Hf   N    C    Ta   Nb
     7     6     7    13    19     6     6
Direct configuration=    11
   0.99613310  0.99888427  0.99985975
   0.25019299  0.00043865  0.25138802
   0.24946711  0.49986792  0.25084913
   0.50063463  0.50190316  0.99899390
   0.50116698  0.24590300  0.74339911
   0.99770982  0.49992545  0.49972326
   0.49835949  0.75421104  0.74951904
   0.98742390  0.23106602  0.26823706
   0.76951259  0.73737794  0.99689526
   0.01947792  0.27593392  0.75097539
   0.76974643  0.25882591  0.47914394
   0.99122857  0.73279226  0.75414802
   0.26270237  0.48755760  0.74841561
   0.24424959  0.25226815  0.99488188
   0.50355906  0.25629296  0.25308369
   0.74860913  0.99891818  0.25430897
   0.75710426  0.25779633  0.99235828
   0.24220621  0.74767141  0.99708990
   0.24565063  0.25114669  0.50480050
   0.24430871  0.74938449  0.50442988
   0.24973266  0.24848832  0.25211260
   0.25632635  0.99993143  0.99480419
   0.00057027  0.25421003  0.01124921
   0.74967215  0.24885282  0.24228096
   0.74345161  0.00206657  0.99667741
   0.50259846  0.00080477  0.24902256
   0.99484582  0.49666508  0.24350103
   0.49658760  0.76079592  0.00355819
   0.99922160  0.00098658  0.74859309
   0.75754432  0.23755818  0.74904182
   0.74443649  0.00199112  0.50402189
   0.50176658  0.24081251  0.49540847
   0.50636381  0.00016919  0.75022060
   0.99583064  0.99762228  0.25416572
   0.50362407  0.24245882  0.00119767
   0.25099833  0.75108077  0.24947832
   0.24405075  0.49942937  0.99724816
   0.00000217  0.74601925  0.00150650
   0.74687369  0.74830972  0.24584754
   0.75718108  0.50182238  0.99953712
   0.50298398  0.50210540  0.25279336
   0.25335083  0.24497540  0.74942442
   0.25047012  0.99997688  0.50517101
   0.99504684  0.24856518  0.51403909
   0.24337699  0.75531723  0.75100872
   0.25251345  0.49964382  0.50370102
   0.99536659  0.75482274  0.50402886
   0.00256555  0.50123565  0.75360573
   0.74891217  0.75248573  0.74998237
   0.74676198  0.49554621  0.50072078
   0.49863781  0.75054307  0.49697334
   0.50174031  0.50003101  0.74580119
   0.50234971  0.00681431  0.00804637
   0.99873926  0.50479646  0.99932254
   0.50120047  0.74432193  0.25219962
   0.23028215  0.00368504  0.74627845
   0.49360520  0.98797743  0.49018591
   0.76505584  0.98786194  0.74490222
   0.99631691  0.76356905  0.25319600
   0.74595986  0.50223376  0.25317250
   0.99913487  0.00291578  0.49925462
   0.49990972  0.51270494  0.49948251
   0.74220053  0.51701678  0.74781619
   0.75239728  0.74261353  0.49691970
HECN                                    
           1
     9.040560   -0.009329    0.010020
    -0.003667    9.060221    0.002084
     0.042517   -0.013621    9.018746
   Zr   Mo   Hf   N    C    Ta   Nb