  64  64   0   0
  0.2218804E+02  0.1124000E-08  0.1124000E-08  0.1124000E-08  0.5000000E-15
  1.000000000000000E-004
  CAR 
 HECN                                    
     15.30719941    -59.49700353  301      8.81411784      1.00000000
    -59.497  0.0000E+00  0.0000E+00
    -59.248  0.0000E+00  0.0000E+00
    -58.998  0.0000E+00  0.0000E+00
    -58.749  0.0000E+00  0.0000E+00
    -58.500  0.0000E+00  0.0000E+00
    -58.250  0.0000E+00  0.0000E+00
    -58.001  0.0000E+00  0.0000E+00
    -57.752  0.0000E+00  0.0000E+00
    -57.502  0.0000E+00  0.0000E+00
    -57.253  0.0000E+00  0.0000E+00
    -57.004  0.0000E+00  0.0000E+00
    -56.754  0.0000E+00  0.0000E+00
    -56.505  0.3694E-09  0.9211E-10
    -56.255  0.1719E-02  0.4287E-03
    -56.006  0.3235E+00  0.8110E-01
    -55.757  0.1559E+00  0.1200E+00
    -55.507  0.7510E-04  0.1200E+00
    -55.258  0.6973E-12  0.1200E+00
    -55.009  0.0000E+00  0.1200E+00
    -54.759  0.0000E+00  0.1200E+00
    -54.510  0.0000E+00  0.1200E+00
    -54.261  0.0000E+00  0.1200E+00
    -54.011  0.0000E+00  0.1200E+00
    -53.762  0.0000E+00  0.1200E+00
    -53.513  0.0000E+00  0.1200E+00
    -53.263  0.0000E+00  0.1200E+00
    -53.014  0.0000E+00  0.1200E+00
    -52.765  0.0000E+00  0.1200E+00
    -52.515  0.0000E+00  0.1200E+00
    -52.266  0.0000E+00  0.1200E+00
    -52.017  0.0000E+00  0.1200E+00
    -51.767  0.0000E+00  0.1200E+00
    -51.518  0.0000E+00  0.1200E+00
    -51.269  0.0000E+00  0.1200E+00
    -51.019  0.0000E+00  0.1200E+00
    -50.770  0.0000E+00  0.1200E+00
    -50.520  0.0000E+00  0.1200E+00
    -50.271  0.0000E+00  0.1200E+00
    -50.022  0.0000E+00  0.1200E+00
    -49.772  0.0000E+00  0.1200E+00
    -49.523  0.0000E+00  0.1200E+00
    -49.274  0.1828E-08  0.1200E+00
    -49.024  0.2094E-02  0.1205E+00
    -48.775  0.8003E-01  0.1405E+00
    -48.526  0.2787E+00  0.2100E+00
    -48.276  0.1977E+00  0.2593E+00
    -48.027  0.2882E-02  0.2600E+00
    -47.778  0.1932E-08  0.2600E+00
    -47.528  0.1207E-03  0.2600E+00
    -47.279  0.8320E-01  0.2808E+00
    -47.030  0.2188E+00  0.3353E+00
    -46.780  0.1465E+00  0.3719E+00
    -46.531  0.3265E-01  0.3800E+00
    -46.282  0.6587E-05  0.3800E+00
    -46.032  0.1200E-13  0.3800E+00
    -45.783  0.0000E+00  0.3800E+00
    -45.534  0.0000E+00  0.3800E+00
    -45.284  0.0000E+00  0.3800E+00
    -45.035  0.0000E+00  0.3800E+00
    -44.786  0.0000E+00  0.3800E+00
    -44.536  0.0000E+00  0.3800E+00
    -44.287  0.0000E+00  0.3800E+00
    -44.037  0.0000E+00  0.3800E+00
    -43.788  0.0000E+00  0.3800E+00
    -43.539  0.0000E+00  0.3800E+00
    -43.289  0.0000E+00  0.3800E+00
    -43.040  0.0000E+00  0.3800E+00
    -42.791  0.0000E+00  0.3800E+00
    -42.541  0.0000E+00  0.3800E+00
    -42.292  0.0000E+00  0.3800E+00
    -42.043  0.0000E+00  0.3800E+00
    -41.793  0.0000E+00  0.3800E+00
    -41.544  0.0000E+00  0.3800E+00
    -41.295  0.0000E+00  0.3800E+00
    -41.045  0.0000E+00  0.3800E+00
    -40.796  0.0000E+00  0.3800E+00
    -40.547  0.0000E+00  0.3800E+00
    -40.297  0.0000E+00  0.3800E+00
    -40.048  0.0000E+00  0.3800E+00
    -39.799  0.0000E+00  0.3800E+00
    -39.549  0.0000E+00  0.3800E+00
    -39.300  0.0000E+00  0.3800E+00
    -39.051  0.0000E+00  0.3800E+00
    -38.801  0.0000E+00  0.3800E+00
    -38.552  0.0000E+00  0.3800E+00
    -38.302  0.0000E+00  0.3800E+00
    -38.053  0.0000E+00  0.3800E+00
    -37.804  0.0000E+00  0.3800E+00
    -37.554  0.0000E+00  0.3800E+00
    -37.305  0.0000E+00  0.3800E+00
    -37.056  0.0000E+00  0.3800E+00
    -36.806  0.0000E+00  0.3800E+00
    -36.557  0.0000E+00  0.3800E+00
    -36.308  0.0000E+00  0.3800E+00
    -36.058  0.0000E+00  0.3800E+00
    -35.809  0.0000E+00  0.3800E+00
    -35.560  0.0000E+00  0.3800E+00
    -35.310  0.0000E+00  0.3800E+00
    -35.061  0.0000E+00  0.3800E+00
    -34.812  0.0000E+00  0.3800E+00
    -34.562  0.0000E+00  0.3800E+00
    -34.313  0.0000E+00  0.3800E+00
    -34.064  0.0000E+00  0.3800E+00
    -33.814  0.0000E+00  0.3800E+00
    -33.565  0.0000E+00  0.3800E+00
    -33.316  0.0000E+00  0.3800E+00
    -33.066  0.0000E+00  0.3800E+00
    -32.817  0.0000E+00  0.3800E+00
    -32.567  0.0000E+00  0.3800E+00
    -32.318  0.0000E+00  0.3800E+00
    -32.069  0.0000E+00  0.3800E+00
    -31.819  0.0000E+00  0.3800E+00
    -31.570  0.0000E+00  0.3800E+00
    -31.321  0.0000E+00  0.3800E+00
    -31.071  0.0000E+00  0.3800E+00
    -30.822  0.0000E+00  0.3800E+00
    -30.573  0.1632E-10  0.3800E+00
    -30.323  0.4408E-03  0.3801E+00
    -30.074  0.3291E+00  0.4622E+00
    -29.825  0.1035E+01  0.7203E+00
    -29.575  0.7902E-01  0.7400E+00
    -29.326  0.6991E-05  0.7400E+00
    -29.077  0.1157E-13  0.7400E+00
    -28.827  0.0000E+00  0.7400E+00
    -28.578  0.0000E+00  0.7400E+00
    -28.329  0.0000E+00  0.7400E+00
    -28.079  0.0000E+00  0.7400E+00
    -27.830  0.0000E+00  0.7400E+00
    -27.581  0.0000E+00  0.7400E+00
    -27.331  0.0000E+00  0.7400E+00
    -27.082  0.0000E+00  0.7400E+00
    -26.833  0.0000E+00  0.7400E+00
    -26.583  0.0000E+00  0.7400E+00
    -26.334  0.0000E+00  0.7400E+00
    -26.084  0.0000E+00  0.7400E+00
    -25.835  0.5768E-15  0.7400E+00
    -25.586  0.1558E-05  0.7400E+00
    -25.336  0.4279E-01  0.7507E+00
    -25.087  0.3444E+00  0.8365E+00
    -24.838  0.8868E+00  0.1058E+01
    -24.588  0.4037E+00  0.1158E+01
    -24.339  0.6697E-02  0.1160E+01
    -24.090  0.2778E-07  0.1160E+01
    -23.840  0.7355E-04  0.1160E+01
    -23.591  0.8069E-01  0.1180E+01
    -23.342  0.4118E+00  0.1283E+01
    -23.092  0.5947E+00  0.1431E+01
    -22.843  0.3268E+00  0.1513E+01
    -22.594  0.2969E-01  0.1520E+01
    -22.344  0.2129E-01  0.1525E+01
    -22.095  0.2821E+00  0.1596E+01
    -21.846  0.4050E+00  0.1697E+01
    -21.596  0.2745E+00  0.1765E+01
    -21.347  0.4551E+00  0.1879E+01
    -21.098  0.1221E+00  0.1909E+01
    -20.848  0.1243E+00  0.1940E+01
    -20.599  0.9933E-04  0.1940E+01
    -20.349  0.1518E-11  0.1940E+01
    -20.100  0.0000E+00  0.1940E+01
    -19.851  0.0000E+00  0.1940E+01
    -19.601  0.0000E+00  0.1940E+01
    -19.352  0.0000E+00  0.1940E+01
    -19.103  0.0000E+00  0.1940E+01
    -18.853  0.0000E+00  0.1940E+01
    -18.604  0.0000E+00  0.1940E+01
    -18.355  0.0000E+00  0.1940E+01
    -18.105  0.0000E+00  0.1940E+01
    -17.856  0.0000E+00  0.1940E+01
    -17.607  0.0000E+00  0.1940E+01
    -17.357  0.0000E+00  0.1940E+01
    -17.108  0.0000E+00  0.1940E+01
    -16.859  0.0000E+00  0.1940E+01
    -16.609  0.0000E+00  0.1940E+01
    -16.360  0.0000E+00  0.1940E+01
    -16.111  0.0000E+00  0.1940E+01
    -15.861  0.0000E+00  0.1940E+01
    -15.612  0.0000E+00  0.1940E+01
    -15.363  0.0000E+00  0.1940E+01
    -15.113  0.0000E+00  0.1940E+01
    -14.864  0.0000E+00  0.1940E+01
    -14.614  0.0000E+00  0.1940E+01
    -14.365  0.0000E+00  0.1940E+01
    -14.116  0.0000E+00  0.1940E+01
    -13.866  0.0000E+00  0.1940E+01
    -13.617  0.0000E+00  0.1940E+01
    -13.368  0.0000E+00  0.1940E+01
    -13.118  0.0000E+00  0.1940E+01
    -12.869  0.0000E+00  0.1940E+01
    -12.620  0.0000E+00  0.1940E+01
    -12.370  0.0000E+00  0.1940E+01
    -12.121  0.0000E+00  0.1940E+01
    -11.872  0.0000E+00  0.1940E+01
    -11.622  0.0000E+00  0.1940E+01
    -11.373  0.0000E+00  0.1940E+01
    -11.124  0.0000E+00  0.1940E+01
    -10.874  0.0000E+00  0.1940E+01
    -10.625  0.0000E+00  0.1940E+01
    -10.376  0.0000E+00  0.1940E+01
    -10.126  0.0000E+00  0.1940E+01
     -9.877  0.0000E+00  0.1940E+01
     -9.628  0.0000E+00  0.1940E+01
     -9.378  0.0000E+00  0.1940E+01
     -9.129  0.0000E+00  0.1940E+01
     -8.879  0.0000E+00  0.1940E+01
     -8.630  0.0000E+00  0.1940E+01
     -8.381  0.0000E+00  0.1940E+01
     -8.131  0.0000E+00  0.1940E+01
     -7.882  0.4449E-11  0.1940E+01
     -7.633  0.3606E-04  0.1940E+01
     -7.383  0.1502E-01  0.1944E+01
     -7.134  0.6143E-01  0.1959E+01
     -6.885  0.9933E-01  0.1984E+01
     -6.635  0.1053E+00  0.2010E+01
     -6.386  0.1361E+00  0.2044E+01
     -6.137  0.2919E+00  0.2117E+01
     -5.887  0.2380E+00  0.2176E+01
     -5.638  0.9548E-01  0.2200E+01
     -5.389  0.1684E-03  0.2200E+01
     -5.139  0.1613E-10  0.2200E+01
     -4.890  0.0000E+00  0.2200E+01
     -4.641  0.0000E+00  0.2200E+01
     -4.391  0.0000E+00  0.2200E+01
     -4.142  0.4350E-09  0.2200E+01
     -3.893  0.3180E-03  0.2200E+01
     -3.643  0.3392E-01  0.2209E+01
     -3.394  0.4760E-01  0.2220E+01
     -3.145  0.7442E-01  0.2239E+01
     -2.895  0.1109E+00  0.2267E+01
     -2.646  0.1744E+00  0.2310E+01
     -2.396  0.2394E+00  0.2370E+01
     -2.147  0.2747E+00  0.2438E+01
     -1.898  0.2426E+00  0.2499E+01
     -1.648  0.1946E+00  0.2547E+01
     -1.399  0.9864E-01  0.2572E+01
     -1.150  0.3199E-01  0.2580E+01
     -0.900  0.5343E-03  0.2580E+01
     -0.651  0.6639E-08  0.2580E+01
     -0.402  0.0000E+00  0.2580E+01
     -0.152  0.0000E+00  0.2580E+01
      0.097  0.0000E+00  0.2580E+01
      0.346  0.0000E+00  0.2580E+01
      0.596  0.1375E-10  0.2580E+01
      0.845  0.5440E-04  0.2580E+01
      1.094  0.8501E-02  0.2582E+01
      1.344  0.3786E-01  0.2592E+01
      1.593  0.1060E+00  0.2618E+01
      1.842  0.1297E+00  0.2650E+01
      2.092  0.1720E+00  0.2693E+01
      2.341  0.2767E+00  0.2762E+01
      2.590  0.3103E+00  0.2840E+01
      2.840  0.2848E+00  0.2911E+01
      3.089  0.3320E+00  0.2993E+01
      3.339  0.3320E+00  0.3076E+01
      3.588  0.4178E+00  0.3180E+01
      3.837  0.5133E+00  0.3308E+01
      4.087  0.5504E+00  0.3446E+01
      4.336  0.6197E+00  0.3600E+01
      4.585  0.6282E+00  0.3757E+01
      4.835  0.5933E+00  0.3905E+01
      5.084  0.5527E+00  0.4043E+01
      5.333  0.4518E+00  0.4155E+01
      5.583  0.4059E+00  0.4256E+01
      5.832  0.2899E+00  0.4329E+01
      6.081  0.2771E+00  0.4398E+01
      6.331  0.1657E+00  0.4439E+01
      6.580  0.1720E+00  0.4482E+01
      6.829  0.8557E-01  0.4503E+01
      7.079  0.8815E-01  0.4525E+01
      7.328  0.1993E+00  0.4575E+01
      7.577  0.1557E+00  0.4614E+01
      7.827  0.1746E+00  0.4657E+01
      8.076  0.1862E+00  0.4704E+01
      8.325  0.1923E+00  0.4752E+01
      8.575  0.2201E+00  0.4807E+01
      8.824  0.2648E+00  0.4873E+01
      9.074  0.2562E+00  0.4937E+01
      9.323  0.3603E+00  0.5026E+01
      9.572  0.4437E+00  0.5137E+01
      9.822  0.4577E+00  0.5251E+01
     10.071  0.5021E+00  0.5376E+01
     10.320  0.5630E+00  0.5517E+01
     10.570  0.5857E+00  0.5663E+01
     10.819  0.6069E+00  0.5814E+01
     11.068  0.5513E+00  0.5952E+01
     11.318  0.5027E+00  0.6077E+01
     11.567  0.4043E+00  0.6178E+01
     11.816  0.2069E+00  0.6229E+01
     12.066  0.4289E-01  0.6240E+01
     12.315  0.1287E-03  0.6240E+01
     12.564  0.2604E-10  0.6240E+01
     12.814  0.0000E+00  0.6240E+01
     13.063  0.0000E+00  0.6240E+01
     13.312  0.0000E+00  0.6240E+01
     13.562  0.0000E+00  0.6240E+01
     13.811  0.0000E+00  0.6240E+01
     14.060  0.0000E+00  0.6240E+01
     14.310  0.0000E+00  0.6240E+01
     14.559  0.0000E+00  0.6240E+01
     14.809  0.0000E+00  0.6240E+01
     15.058  0.0000E+00  0.6240E+01
     15.307  0.0000E+00  0.6240E+01
