<?xml version="1.0" encoding="ISO-8859-1"?>
<modeling>
 <generator>
  <i name="program" type="string">vasp </i>
  <i name="version" type="string">5.4.4.18Apr17-6-g9f103f2a35  </i>
  <i name="subversion" type="string">(build Oct 18 2021 20:38:43) complex            parallel </i>
  <i name="platform" type="string">LinuxIFC </i>
  <i name="date" type="string">2024 05 30 </i>
  <i name="time" type="string">10:48:16 </i>
 </generator>
 <incar>
  <i type="string" name="SYSTEM">HECN</i>
  <i type="int" name="ISTART">     0</i>
  <i type="string" name="PREC">normal</i>
  <i type="string" name="ALGO">Fast</i>
  <i type="int" name="ICHARG">     2</i>
  <i type="int" name="NELM">    60</i>
  <i type="int" name="IBRION">     2</i>
  <i name="EDIFF">      0.00001000</i>
  <i name="EDIFFG">     -0.01000000</i>
  <i type="int" name="NSW">   100</i>
  <i type="int" name="ISIF">     3</i>
  <i name="ENCUT">    400.00000000</i>
  <i name="POTIM">      0.50000000</i>
  <i type="logical" name="LREAL"> F  </i>
  <i type="int" name="ISMEAR">     0</i>
  <i name="SIGMA">      0.10000000</i>
  <i type="logical" name="LWAVE"> F  </i>
  <i type="logical" name="LCHARG"> F  </i>
  <v type="int" name="KPOINT_BSE">    -1     0     0     0</v>
  <i type="int" name="NELM">    60</i>
 </incar>
 <structure name="primitive_cell" >
  <crystal>
   <varray name="basis" >
    <v>      11.23999977       0.00000000       0.00000000 </v>
    <v>       0.00000000      11.23999977       0.00000000 </v>
    <v>       0.00000000       0.00000000      11.23999977 </v>
   </varray>
   <i name="volume">   1420.03453724 </i>
   <varray name="rec_basis" >
    <v>       0.08896797       0.00000000       0.00000000 </v>
    <v>       0.00000000       0.08896797       0.00000000 </v>
    <v>       0.00000000       0.00000000       0.08896797 </v>
   </varray>
  </crystal>
  <varray name="positions" >
   <v>       0.00000000       0.00000000       0.00000000 </v>
   <v>      -0.24999996       0.00000000       0.00000000 </v>
   <v>       0.00000000       0.00000000      -0.24999996 </v>
   <v>       0.00000000      -0.24999996       0.00000000 </v>
   <v>       0.25000000       0.00000000       0.00000000 </v>
   <v>       0.00000000       0.25000000       0.00000000 </v>
   <v>       0.00000000       0.00000000       0.25000000 </v>
   <v>      -0.24999996      -0.24999996       0.00000000 </v>
   <v>       0.00000000      -0.24999996      -0.24999996 </v>
   <v>      -0.24999996       0.00000000      -0.24999996 </v>
   <v>       0.00000000       0.25000000      -0.24999996 </v>
   <v>      -0.24999996       0.00000000       0.25000000 </v>
   <v>      -0.24999996       0.25000000       0.00000000 </v>
   <v>       0.25000000      -0.24999996       0.00000000 </v>
   <v>       0.25000000       0.00000000      -0.24999996 </v>
   <v>       0.00000000      -0.24999996       0.25000000 </v>
   <v>       0.25000000       0.00000000       0.25000000 </v>
   <v>       0.00000000       0.25000000       0.25000000 </v>
   <v>       0.25000000       0.25000000       0.00000000 </v>
   <v>      -0.24999996      -0.24999996      -0.24999996 </v>
   <v>      -0.24999996       0.25000000      -0.24999996 </v>
   <v>       0.25000000      -0.24999996      -0.24999996 </v>
   <v>      -0.24999996      -0.24999996       0.25000000 </v>
   <v>      -0.24999996       0.25000000       0.25000000 </v>
   <v>       0.25000000      -0.24999996       0.25000000 </v>
   <v>       0.25000000       0.25000000      -0.24999996 </v>
   <v>       0.25000000       0.25000000       0.25000000 </v>
   <v>      -0.50000000       0.00000000       0.00000000 </v>
   <v>       0.00000000      -0.50000000       0.00000000 </v>
   <v>       0.00000000       0.00000000      -0.50000000 </v>
   <v>      -0.50000000      -0.24999996       0.00000000 </v>
   <v>      -0.24999996       0.00000000      -0.50000000 </v>
   <v>      -0.50000000       0.00000000      -0.24999996 </v>
   <v>      -0.24999996      -0.50000000       0.00000000 </v>
   <v>       0.00000000      -0.24999996      -0.50000000 </v>
   <v>       0.00000000      -0.50000000      -0.24999996 </v>
   <v>      -0.50000000       0.00000000       0.25000000 </v>
   <v>       0.00000000      -0.50000000       0.25000000 </v>
   <v>      -0.50000000       0.25000000       0.00000000 </v>
   <v>       0.25000000      -0.50000000       0.00000000 </v>
   <v>       0.25000000       0.00000000      -0.50000000 </v>
   <v>       0.00000000       0.25000000      -0.50000000 </v>
   <v>      -0.24999996      -0.24999996      -0.50000000 </v>
   <v>      -0.50000000      -0.24999996      -0.24999996 </v>
   <v>      -0.24999996      -0.50000000      -0.24999996 </v>
   <v>      -0.50000000       0.25000000      -0.24999996 </v>
   <v>      -0.24999996       0.25000000      -0.50000000 </v>
   <v>       0.25000000      -0.50000000      -0.24999996 </v>
   <v>       0.25000000      -0.24999996      -0.50000000 </v>
   <v>      -0.50000000      -0.24999996       0.25000000 </v>
   <v>      -0.24999996      -0.50000000       0.25000000 </v>
   <v>       0.25000000      -0.50000000       0.25000000 </v>
   <v>      -0.50000000       0.25000000       0.25000000 </v>
   <v>       0.25000000       0.25000000      -0.50000000 </v>
   <v>      -0.50000000      -0.50000000       0.00000000 </v>
   <v>       0.00000000      -0.50000000      -0.50000000 </v>
   <v>      -0.50000000       0.00000000      -0.50000000 </v>
   <v>      -0.24999996      -0.50000000      -0.50000000 </v>
   <v>      -0.50000000      -0.24999996      -0.50000000 </v>
   <v>      -0.50000000      -0.50000000      -0.24999996 </v>
   <v>      -0.50000000       0.25000000      -0.50000000 </v>
   <v>      -0.50000000      -0.50000000       0.25000000 </v>
   <v>       0.25000000      -0.50000000      -0.50000000 </v>
   <v>      -0.50000000      -0.50000000      -0.50000000 </v>
  </varray>
 </structure>
 <varray name="primitive_index" >
  <v type="int" >        1 </v>
  <v type="int" >       25 </v>
  <v type="int" >       29 </v>
  <v type="int" >       38 </v>
  <v type="int" >       22 </v>
  <v type="int" >       23 </v>
  <v type="int" >       34 </v>
  <v type="int" >        9 </v>
  <v type="int" >       12 </v>
  <v type="int" >       58 </v>
  <v type="int" >       10 </v>
  <v type="int" >       16 </v>
  <v type="int" >       17 </v>
  <v type="int" >       18 </v>
  <v type="int" >       56 </v>
  <v type="int" >       59 </v>
  <v type="int" >        2 </v>
  <v type="int" >        8 </v>
  <v type="int" >       14 </v>
  <v type="int" >       49 </v>
  <v type="int" >       30 </v>
  <v type="int" >       45 </v>
  <v type="int" >       39 </v>
  <v type="int" >       24 </v>
  <v type="int" >       36 </v>
  <v type="int" >       42 </v>
  <v type="int" >       21 </v>
  <v type="int" >       53 </v>
  <v type="int" >       54 </v>
  <v type="int" >       61 </v>
  <v type="int" >       28 </v>
  <v type="int" >       31 </v>
  <v type="int" >       33 </v>
  <v type="int" >       40 </v>
  <v type="int" >       47 </v>
  <v type="int" >       48 </v>
  <v type="int" >       26 </v>
  <v type="int" >       27 </v>
  <v type="int" >       35 </v>
  <v type="int" >       37 </v>
  <v type="int" >       43 </v>
  <v type="int" >       44 </v>
  <v type="int" >       64 </v>
  <v type="int" >        7 </v>
  <v type="int" >       63 </v>
  <v type="int" >        5 </v>
  <v type="int" >       11 </v>
  <v type="int" >       13 </v>
  <v type="int" >       20 </v>
  <v type="int" >       55 </v>
  <v type="int" >       60 </v>
  <v type="int" >        3 </v>
  <v type="int" >       15 </v>
  <v type="int" >       19 </v>
  <v type="int" >        4 </v>
  <v type="int" >        6 </v>
  <v type="int" >       57 </v>
  <v type="int" >       50 </v>
  <v type="int" >       51 </v>
  <v type="int" >       52 </v>
  <v type="int" >       32 </v>
  <v type="int" >       41 </v>
  <v type="int" >       46 </v>
  <v type="int" >       62 </v>
 </varray>
 <kpoints>
  <generation param="Gamma">
   <v type="int" name="divisions">       3        3        3 </v>
   <v name="usershift">      0.00000000       0.00000000       0.00000000 </v>
   <v name="genvec1">      0.33333333       0.00000000       0.00000000 </v>
   <v name="genvec2">      0.00000000       0.33333333       0.00000000 </v>
   <v name="genvec3">      0.00000000       0.00000000       0.33333333 </v>
   <v name="shift">      0.00000000       0.00000000       0.00000000 </v>
  </generation>
  <varray name="kpointlist" >
   <v>       0.00000000       0.00000000       0.00000000 </v>
   <v>       0.33333333       0.00000000       0.00000000 </v>
   <v>       0.00000000       0.33333333       0.00000000 </v>
   <v>       0.33333333       0.33333333       0.00000000 </v>
   <v>      -0.33333333       0.33333333       0.00000000 </v>
   <v>       0.00000000       0.00000000       0.33333333 </v>
   <v>       0.33333333       0.00000000       0.33333333 </v>
   <v>      -0.33333333       0.00000000       0.33333333 </v>
   <v>       0.00000000       0.33333333       0.33333333 </v>
   <v>       0.33333333       0.33333333       0.33333333 </v>
   <v>      -0.33333333       0.33333333       0.33333333 </v>
   <v>       0.00000000      -0.33333333       0.33333333 </v>
   <v>       0.33333333      -0.33333333       0.33333333 </v>
   <v>      -0.33333333      -0.33333333       0.33333333 </v>
  </varray>
  <varray name="weights" >
   <v>       0.03703704 </v>
   <v>       0.07407407 </v>
   <v>       0.07407407 </v>
   <v>       0.07407407 </v>
   <v>       0.07407407 </v>
   <v>       0.07407407 </v>
   <v>       0.07407407 </v>
   <v>       0.07407407 </v>
   <v>       0.07407407 </v>
   <v>       0.07407407 </v>
   <v>       0.07407407 </v>
   <v>       0.07407407 </v>
   <v>       0.07407407 </v>
   <v>       0.07407407 </v>
  </varray>
 </kpoints>
 <parameters>
  <separator name="general" >
   <i type="string" name="SYSTEM">HECN</i>
   <i type="logical" name="LCOMPAT"> F  </i>
  </separator>
  <separator name="electronic" >
   <i type="string" name="PREC">normal</i>
   <i name="ENMAX">    400.00000000</i>
   <i name="ENAUG">    644.87300000</i>
   <i name="EDIFF">      0.00001000</i>
   <i type="int" name="IALGO">    68</i>
   <i type="int" name="IWAVPR">    11</i>
   <i type="int" name="NBANDS">   312</i>
   <i name="NELECT">    487.00000000</i>
   <i type="int" name="TURBO">     0</i>
   <i type="int" name="IRESTART">     0</i>
   <i type="int" name="NREBOOT">     0</i>
   <i type="int" name="NMIN">     0</i>
   <i name="EREF">      0.00000000</i>
   <separator name="electronic smearing" >
    <i type="int" name="ISMEAR">     0</i>
    <i name="SIGMA">      0.10000000</i>
    <i name="KSPACING">      0.50000000</i>
    <i type="logical" name="KGAMMA"> T  </i>
   </separator>
   <separator name="electronic projectors" >
    <i type="logical" name="LREAL"> F  </i>
    <v name="ROPT">      0.00000000      0.00000000      0.00000000      0.00000000      0.00000000      0.00000000      0.00000000</v>
    <i type="int" name="LMAXPAW">  -100</i>
    <i type="int" name="LMAXMIX">     2</i>
    <i type="logical" name="NLSPLINE"> F  </i>
   </separator>
   <separator name="electronic startup" >
    <i type="int" name="ISTART">     0</i>
    <i type="int" name="ICHARG">     2</i>
    <i type="int" name="INIWAV">     1</i>
   </separator>
   <separator name="electronic spin" >
    <i type="int" name="ISPIN">     1</i>
    <i type="logical" name="LNONCOLLINEAR"> F  </i>
    <v name="MAGMOM">      1.00000000      1.00000000      1.00000000      1.00000000      1.00000000      1.00000000      1.00000000      1.00000000      1.00000000      1.00000000      1.00000000      1.00000000      1.00000000      1.00000000      1.00000000      1.00000000      1.00000000      1.00000000      1.00000000      1.00000000
      1.00000000      1.00000000      1.00000000      1.00000000      1.00000000      1.00000000      1.00000000      1.00000000      1.00000000      1.00000000      1.00000000      1.00000000      1.00000000      1.00000000      1.00000000      1.00000000      1.00000000      1.00000000      1.00000000      1.00000000
      1.00000000      1.00000000      1.00000000      1.00000000      1.00000000      1.00000000      1.00000000      1.00000000      1.00000000      1.00000000      1.00000000      1.00000000      1.00000000      1.00000000      1.00000000      1.00000000      1.00000000      1.00000000      1.00000000      1.00000000
      1.00000000      1.00000000      1.00000000      1.00000000</v>
    <i name="NUPDOWN">     -1.00000000</i>
    <i type="logical" name="LSORBIT"> F  </i>
    <v name="SAXIS">      0.00000000      0.00000000      1.00000000</v>
    <i type="logical" name="LSPIRAL"> F  </i>
    <v name="QSPIRAL">      0.00000000      0.00000000      0.00000000</v>
    <i type="logical" name="LZEROZ"> F  </i>
   </separator>
   <separator name="electronic exchange-correlation" >
    <i type="logical" name="LASPH"> F  </i>
    <i type="logical" name="LMETAGGA"> F  </i>
   </separator>
   <separator name="electronic convergence" >
    <i type="int" name="NELM">    60</i>
    <i type="int" name="NELMDL">    -5</i>
    <i type="int" name="NELMIN">     2</i>
    <i name="ENINI">    400.00000000</i>
    <separator name="electronic convergence detail" >
     <i type="logical" name="LDIAG"> T  </i>
     <i type="logical" name="LSUBROT"> F  </i>
     <i name="WEIMIN">      0.00100000</i>
     <i name="EBREAK">      0.00000001</i>
     <i name="DEPER">      0.30000000</i>
     <i type="int" name="NRMM">     4</i>
     <i name="TIME">      0.40000000</i>
    </separator>
   </separator>
   <separator name="electronic mixer" >
    <i name="AMIX">      0.40000000</i>
    <i name="BMIX">      1.00000000</i>
    <i name="AMIN">      0.10000000</i>
    <i name="AMIX_MAG">      1.60000000</i>
    <i name="BMIX_MAG">      1.00000000</i>
    <separator name="electronic mixer details" >
     <i type="int" name="IMIX">     4</i>
     <i type="logical" name="MIXFIRST"> F  </i>
     <i type="int" name="MAXMIX">   -45</i>
     <i name="WC">    100.00000000</i>
     <i type="int" name="INIMIX">     1</i>
     <i type="int" name="MIXPRE">     1</i>
     <i type="int" name="MREMOVE">     5</i>
    </separator>
   </separator>
   <separator name="electronic dipolcorrection" >
    <i type="logical" name="LDIPOL"> F  </i>
    <i type="logical" name="LMONO"> F  </i>
    <i type="int" name="IDIPOL">     0</i>
    <i name="EPSILON">      1.00000000</i>
    <v name="DIPOL">   -100.00000000   -100.00000000   -100.00000000</v>
    <i name="EFIELD">      0.00000000</i>
   </separator>
  </separator>
  <separator name="grids" >
   <i type="int" name="NGX">    56</i>
   <i type="int" name="NGY">    56</i>
   <i type="int" name="NGZ">    56</i>
   <i type="int" name="NGXF">   112</i>
   <i type="int" name="NGYF">   112</i>
   <i type="int" name="NGZF">   112</i>
   <i type="logical" name="ADDGRID"> F  </i>
  </separator>
  <separator name="ionic" >
   <i type="int" name="NSW">   100</i>
   <i type="int" name="IBRION">     2</i>
   <i type="int" name="MDALGO">     0</i>
   <i type="int" name="ISIF">     3</i>
   <i name="PSTRESS">      0.00000000</i>
   <i name="EDIFFG">     -0.01000000</i>
   <i type="int" name="NFREE">     1</i>
   <i name="POTIM">      0.50000000</i>
   <i name="SMASS">     -3.00000000</i>
   <i name="SCALEE">      1.00000000</i>
  </separator>
  <separator name="ionic md" >
   <i name="TEBEG">      0.00010000</i>
   <i name="TEEND">      0.00010000</i>
   <i type="int" name="NBLOCK">     1</i>
   <i type="int" name="KBLOCK">   100</i>
   <i type="int" name="NPACO">   256</i>
   <i name="APACO">     16.00000000</i>
  </separator>
  <separator name="symmetry" >
   <i type="int" name="ISYM">     2</i>
   <i name="SYMPREC">      0.00001000</i>
  </separator>
  <separator name="dos" >
   <i type="int" name="LORBIT">     0</i>
   <v name="RWIGS">     -1.00000000     -1.00000000     -1.00000000     -1.00000000     -1.00000000     -1.00000000     -1.00000000</v>
   <i type="int" name="NEDOS">   301</i>
   <i name="EMIN">     10.00000000</i>
   <i name="EMAX">    -10.00000000</i>
   <i name="EFERMI">      0.00000000</i>
  </separator>
  <separator name="writing" >
   <i type="int" name="NWRITE">     2</i>
   <i type="logical" name="LWAVE"> F  </i>
   <i type="logical" name="LDOWNSAMPLE"> F  </i>
   <i type="logical" name="LCHARG"> F  </i>
   <i type="logical" name="LPARD"> F  </i>
   <i type="logical" name="LVTOT"> F  </i>
   <i type="logical" name="LVHAR"> F  </i>
   <i type="logical" name="LELF"> F  </i>
   <i type="logical" name="LOPTICS"> F  </i>
   <v name="STM">      0.00000000      0.00000000      0.00000000      0.00000000      0.00000000      0.00000000      0.00000000</v>
  </separator>
  <separator name="performance" >
   <i type="int" name="NPAR">    24</i>
   <i type="int" name="NSIM">     4</i>
   <i type="int" name="NBLK">    -1</i>
   <i type="logical" name="LPLANE"> T  </i>
   <i type="logical" name="LSCALAPACK"> T  </i>
   <i type="logical" name="LSCAAWARE"> F  </i>
   <i type="logical" name="LSCALU"> F  </i>
   <i type="logical" name="LASYNC"> F  </i>
   <i type="logical" name="LORBITALREAL"> F  </i>
  </separator>
  <separator name="miscellaneous" >
   <i type="int" name="IDIOT">     3</i>
   <i type="int" name="ISPECIAL">     0</i>
   <i type="logical" name="LMUSIC"> F  </i>
   <v name="POMASS">     47.88000000     95.94000000    178.49000000     14.00100000     12.01100000     92.91000000     50.94100000</v>
   <v name="DARWINR">      0.00000000      0.00000000      0.00000000      0.00000000      0.00000000      0.00000000      0.00000000</v>
   <v name="DARWINV">      1.00000000      1.00000000      1.00000000      1.00000000      1.00000000      1.00000000      1.00000000</v>
   <i type="logical" name="LCORR"> T  </i>
  </separator>
  <i type="logical" name="GGA_COMPAT"> T  </i>
  <i type="logical" name="LBERRY"> F  </i>
  <i type="int" name="ICORELEVEL">     0</i>
  <i type="logical" name="LDAU"> F  </i>
  <i type="int" name="I_CONSTRAINED_M">     0</i>
  <separator name="electronic exchange-correlation" >
   <i type="string" name="GGA">--</i>
   <i type="int" name="VOSKOWN">     0</i>
   <i type="logical" name="LHFCALC"> F  </i>
   <i type="string" name="PRECFOCK"></i>
   <i type="logical" name="LSYMGRAD"> F  </i>
   <i type="logical" name="LHFONE"> F  </i>
   <i type="logical" name="LRHFCALC"> F  </i>
   <i type="logical" name="LTHOMAS"> F  </i>
   <i type="logical" name="LMODELHF"> F  </i>
   <i name="ENCUT4O">     -1.00000000</i>
   <i type="int" name="EXXOEP">     0</i>
   <i type="int" name="FOURORBIT">     0</i>
   <i name="AEXX">      0.00000000</i>
   <i name="HFALPHA">      0.00000000</i>
   <i name="MCALPHA">      0.00000000</i>
   <i name="ALDAX">      1.00000000</i>
   <i name="AGGAX">      1.00000000</i>
   <i name="ALDAC">      1.00000000</i>
   <i name="AGGAC">      1.00000000</i>
   <i type="int" name="NKREDX">     1</i>
   <i type="int" name="NKREDY">     1</i>
   <i type="int" name="NKREDZ">     1</i>
   <i type="logical" name="SHIFTRED"> F  </i>
   <i type="logical" name="ODDONLY"> F  </i>
   <i type="logical" name="EVENONLY"> F  </i>
   <i type="int" name="LMAXFOCK">     0</i>
   <i type="int" name="NMAXFOCKAE">     0</i>
   <i type="logical" name="LFOCKAEDFT"> F  </i>
   <i name="HFSCREEN">      0.00000000</i>
   <i name="HFSCREENC">      0.00000000</i>
   <i type="int" name="NBANDSGWLOW">     0</i>
  </separator>
  <separator name="vdW DFT" >
   <i type="logical" name="LUSE_VDW"> F  </i>
   <i name="Zab_VDW">     -0.84910000</i>
   <i name="PARAM1">      0.12340000</i>
   <i name="PARAM2">      1.00000000</i>
   <i name="PARAM3">      0.00000000</i>
  </separator>
  <separator name="model GW" >
   <i type="int" name="MODEL_GW">     0</i>
   <i name="MODEL_EPS0">     13.31282379</i>
   <i name="MODEL_ALPHA">      1.00000000</i>
  </separator>
  <separator name="linear response parameters" >
   <i type="logical" name="LEPSILON"> F  </i>
   <i type="logical" name="LRPA"> F  </i>
   <i type="logical" name="LNABLA"> F  </i>
   <i type="logical" name="LVEL"> F  </i>
   <i type="int" name="KINTER">     0</i>
   <i name="CSHIFT">      0.10000000</i>
   <i name="OMEGAMAX">     -1.00000000</i>
   <i name="DEG_THRESHOLD">      0.00200000</i>
   <i name="RTIME">     -0.10000000</i>
   <i name="WPLASMAI">      0.00000000</i>
   <v name="DFIELD">      0.00000000      0.00000000      0.00000000</v>
   <v name="WPLASMA">      0.00000000      0.00000000      0.00000000      0.00000000      0.00000000      0.00000000      0.00000000      0.00000000      0.00000000</v>
  </separator>
  <separator name="orbital magnetization" >
   <i type="logical" name="NUCIND"> F  </i>
   <v name="MAGPOS">      0.00000000      0.00000000      0.00000000</v>
   <i type="logical" name="LNICSALL"> T  </i>
   <i type="logical" name="ORBITALMAG"> F  </i>
   <i type="logical" name="LMAGBLOCH"> F  </i>
   <i type="logical" name="LCHIMAG"> F  </i>
   <i type="logical" name="LGAUGE"> T  </i>
   <i type="int" name="MAGATOM">     0</i>
   <v name="MAGDIPOL">      0.00000000      0.00000000      0.00000000</v>
   <v name="AVECCONST">      0.00000000      0.00000000      0.00000000</v>
  </separator>
  <separator name="response functions" >
   <i type="logical" name="LADDER"> F  </i>
   <i type="logical" name="LRPAFORCE"> F  </i>
   <i type="logical" name="LFXC"> F  </i>
   <i type="logical" name="LHARTREE"> T  </i>
   <i type="int" name="IBSE">     0</i>
   <v type="int" name="KPOINT">    -1     0     0     0</v>
   <i type="logical" name="LTCTE"> F  </i>
   <i type="logical" name="LTETE"> F  </i>
   <i type="logical" name="LTRIPLET"> F  </i>
   <i type="logical" name="LFXCEPS"> F  </i>
   <i type="logical" name="LFXHEG"> F  </i>
   <i type="int" name="NATURALO">     2</i>
   <i type="logical" name="L2ORDER"> F  </i>
   <i type="logical" name="LMP2LT"> F  </i>
   <i type="logical" name="LUSEW"> F  </i>
   <i name="ENCUTGW">     -2.00000000</i>
   <i name="ENCUTGWSOFT">     -2.00000000</i>
   <i name="ENCUTLF">     -1.00000000</i>
   <i type="int" name="LMAXMP2">    -1</i>
   <i name="SCISSOR">      0.00000000</i>
   <i type="int" name="NOMEGA">     0</i>
   <i type="int" name="NOMEGAR">     0</i>
   <i type="int" name="NBANDSGW">    -1</i>
   <i type="int" name="NBANDSO">    -1</i>
   <i type="int" name="NBANDSV">    -1</i>
   <i type="int" name="NELM">    60</i>
   <i type="int" name="NELMHF">     1</i>
   <i type="int" name="DIM">     3</i>
   <i type="int" name="ANTIRES">     0</i>
   <i name="OMEGAMAX">    -30.00000000</i>
   <i name="OMEGAMIN">    -30.00000000</i>
   <i name="OMEGATL">   -200.00000000</i>
   <i type="int" name="OMEGAGRID">   140</i>
   <i name="CSHIFT">     -0.10000000</i>
   <i type="logical" name="SELFENERGY"> F  </i>
   <i type="logical" name="LSPECTRAL"> F  </i>
   <i type="logical" name="LSPECTRALGW"> F  </i>
   <i type="logical" name="LSINGLES"> F  </i>
   <i type="logical" name="LFERMIGW"> F  </i>
   <i type="logical" name="ODDONLYGW"> F  </i>
   <i type="logical" name="EVENONLYGW"> F  </i>
   <i type="int" name="NKREDLFX">     1</i>
   <i type="int" name="NKREDLFY">     1</i>
   <i type="int" name="NKREDLFZ">     1</i>
   <i type="int" name="MAXMEM">  2800</i>
   <i type="int" name="TELESCOPE">     0</i>
   <i type="int" name="TAUPAR">     1</i>
   <i type="int" name="OMEGAPAR">    -1</i>
   <i name="LAMBDA">      1.00000000</i>
  </separator>
  <separator name="External order field" >
   <i name="OFIELD_KAPPA">      0.00000000</i>
   <v name="OFIELD_K">      0.00000000      0.00000000      0.00000000</v>
   <i name="OFIELD_Q6_NEAR">      0.00000000</i>
   <i name="OFIELD_Q6_FAR">      0.00000000</i>
   <i name="OFIELD_A">      0.00000000</i>
  </separator>
 </parameters>
 <atominfo>
  <atoms>      64 </atoms>
  <types>       7 </types>
  <array name="atoms" >
   <dimension dim="1">ion</dimension>
   <field type="string">element</field>
   <field type="int">atomtype</field>
   <set>
    <rc><c>Ti</c><c>   1</c></rc>
    <rc><c>Ti</c><c>   1</c></rc>
    <rc><c>Ti</c><c>   1</c></rc>
    <rc><c>Ti</c><c>   1</c></rc>
    <rc><c>Ti</c><c>   1</c></rc>
    <rc><c>Ti</c><c>   1</c></rc>
    <rc><c>Ti</c><c>   1</c></rc>
    <rc><c>Mo</c><c>   2</c></rc>
    <rc><c>Mo</c><c>   2</c></rc>
    <rc><c>Mo</c><c>   2</c></rc>
    <rc><c>Mo</c><c>   2</c></rc>
    <rc><c>Mo</c><c>   2</c></rc>
    <rc><c>Mo</c><c>   2</c></rc>
    <rc><c>Hf</c><c>   3</c></rc>
    <rc><c>Hf</c><c>   3</c></rc>
    <rc><c>Hf</c><c>   3</c></rc>
    <rc><c>Hf</c><c>   3</c></rc>
    <rc><c>Hf</c><c>   3</c></rc>
    <rc><c>Hf</c><c>   3</c></rc>
    <rc><c>Hf</c><c>   3</c></rc>
    <rc><c>N </c><c>   4</c></rc>
    <rc><c>N </c><c>   4</c></rc>
    <rc><c>N </c><c>   4</c></rc>
    <rc><c>N </c><c>   4</c></rc>
    <rc><c>N </c><c>   4</c></rc>
    <rc><c>N </c><c>   4</c></rc>
    <rc><c>N </c><c>   4</c></rc>
    <rc><c>N </c><c>   4</c></rc>
    <rc><c>N </c><c>   4</c></rc>
    <rc><c>N </c><c>   4</c></rc>
    <rc><c>N </c><c>   4</c></rc>
    <rc><c>N </c><c>   4</c></rc>
    <rc><c>N </c><c>   4</c></rc>
    <rc><c>C </c><c>   5</c></rc>
    <rc><c>C </c><c>   5</c></rc>
    <rc><c>C </c><c>   5</c></rc>
    <rc><c>C </c><c>   5</c></rc>
    <rc><c>C </c><c>   5</c></rc>
    <rc><c>C </c><c>   5</c></rc>
    <rc><c>C </c><c>   5</c></rc>
    <rc><c>C </c><c>   5</c></rc>
    <rc><c>C </c><c>   5</c></rc>
    <rc><c>C </c><c>   5</c></rc>
    <rc><c>C </c><c>   5</c></rc>
    <rc><c>C </c><c>   5</c></rc>
    <rc><c>C </c><c>   5</c></rc>
    <rc><c>C </c><c>   5</c></rc>
    <rc><c>C </c><c>   5</c></rc>
    <rc><c>C </c><c>   5</c></rc>
    <rc><c>C </c><c>   5</c></rc>
    <rc><c>C </c><c>   5</c></rc>
    <rc><c>C </c><c>   5</c></rc>
    <rc><c>Nb</c><c>   6</c></rc>
    <rc><c>Nb</c><c>   6</c></rc>
    <rc><c>Nb</c><c>   6</c></rc>
    <rc><c>Nb</c><c>   6</c></rc>
    <rc><c>Nb</c><c>   6</c></rc>
    <rc><c>Nb</c><c>   6</c></rc>
    <rc><c>V </c><c>   7</c></rc>
    <rc><c>V </c><c>   7</c></rc>
    <rc><c>V </c><c>   7</c></rc>
    <rc><c>V </c><c>   7</c></rc>
    <rc><c>V </c><c>   7</c></rc>
    <rc><c>V </c><c>   7</c></rc>
   </set>
  </array>
  <array name="atomtypes" >
   <dimension dim="1">type</dimension>
   <field type="int">atomspertype</field>
   <field type="string">element</field>
   <field>mass</field>
   <field>valence</field>
   <field type="string">pseudopotential</field>
   <set>
    <rc><c>   7</c><c>Ti</c><c>     47.88000000</c><c>     12.00000000</c><c> PAW_PBE Ti_sv 07Sep2000                </c></rc>
    <rc><c>   6</c><c>Mo</c><c>     95.94000000</c><c>      6.00000000</c><c> PAW_PBE Mo 08Apr2002                   </c></rc>
    <rc><c>   7</c><c>Hf</c><c>    178.49000000</c><c>     10.00000000</c><c> PAW_PBE Hf_pv 06Sep2000                </c></rc>
    <rc><c>  13</c><c>N </c><c>     14.00100000</c><c>      5.00000000</c><c> PAW_PBE N 08Apr2002                    </c></rc>
    <rc><c>  19</c><c>C </c><c>     12.01100000</c><c>      4.00000000</c><c> PAW_PBE C 08Apr2002                    </c></rc>
    <rc><c>   6</c><c>Nb</c><c>     92.91000000</c><c>     13.00000000</c><c> PAW_PBE Nb_sv 17Jan2003                </c></rc>
    <rc><c>   6</c><c>V </c><c>     50.94100000</c><c>     13.00000000</c><c> PAW_PBE V_sv 07Sep2000                 </c></rc>
   </set>
  </array>
 </atominfo>
 <structure name="initialpos" >
  <crystal>
   <varray name="basis" >
    <v>      11.23999977       0.00000000       0.00000000 </v>
    <v>       0.00000000      11.23999977       0.00000000 </v>
    <v>       0.00000000       0.00000000      11.23999977 </v>
   </varray>
   <i name="volume">   1420.03453724 </i>
   <varray name="rec_basis" >
    <v>       0.08896797       0.00000000       0.00000000 </v>
    <v>       0.00000000       0.08896797       0.00000000 </v>
    <v>       0.00000000       0.00000000       0.08896797 </v>
   </varray>
  </crystal>
  <varray name="positions" >
   <v>       0.00000000       0.00000000       0.00000000 </v>
   <v>       0.25000000       0.00000000       0.25000000 </v>
   <v>       0.25000000       0.50000000       0.25000000 </v>
   <v>       0.50000000       0.50000000       0.00000000 </v>
   <v>       0.50000000       0.25000000       0.75000004 </v>
   <v>       0.00000000       0.50000000       0.50000000 </v>
   <v>       0.50000000       0.75000004       0.75000004 </v>
   <v>       0.00000000       0.25000000       0.25000000 </v>
   <v>       0.75000004       0.75000004       0.00000000 </v>
   <v>       0.00000000       0.25000000       0.75000004 </v>
   <v>       0.75000004       0.25000000       0.50000000 </v>
   <v>       0.00000000       0.75000004       0.75000004 </v>
   <v>       0.25000000       0.50000000       0.75000004 </v>
   <v>       0.25000000       0.25000000       0.00000000 </v>
   <v>       0.50000000       0.25000000       0.25000000 </v>
   <v>       0.75000004       0.00000000       0.25000000 </v>
   <v>       0.75000004       0.25000000       0.00000000 </v>
   <v>       0.25000000       0.75000004       0.00000000 </v>
   <v>       0.25000000       0.25000000       0.50000000 </v>
   <v>       0.25000000       0.75000004       0.50000000 </v>
   <v>       0.25000000       0.25000000       0.25000000 </v>
   <v>       0.25000000       0.00000000       0.00000000 </v>
   <v>       0.00000000       0.25000000       0.00000000 </v>
   <v>       0.75000004       0.25000000       0.25000000 </v>
   <v>       0.75000004       0.00000000       0.00000000 </v>
   <v>       0.50000000       0.00000000       0.25000000 </v>
   <v>       0.00000000       0.50000000       0.25000000 </v>
   <v>       0.50000000       0.75000004       0.00000000 </v>
   <v>       0.00000000       0.00000000       0.75000004 </v>
   <v>       0.75000004       0.25000000       0.75000004 </v>
   <v>       0.75000004       0.00000000       0.50000000 </v>
   <v>       0.50000000       0.25000000       0.50000000 </v>
   <v>       0.50000000       0.00000000       0.75000004 </v>
   <v>       0.00000000       0.00000000       0.25000000 </v>
   <v>       0.50000000       0.25000000       0.00000000 </v>
   <v>       0.25000000       0.75000004       0.25000000 </v>
   <v>       0.25000000       0.50000000       0.00000000 </v>
   <v>       0.00000000       0.75000004       0.00000000 </v>
   <v>       0.75000004       0.75000004       0.25000000 </v>
   <v>       0.75000004       0.50000000       0.00000000 </v>
   <v>       0.50000000       0.50000000       0.25000000 </v>
   <v>       0.25000000       0.25000000       0.75000004 </v>
   <v>       0.25000000       0.00000000       0.50000000 </v>
   <v>       0.00000000       0.25000000       0.50000000 </v>
   <v>       0.25000000       0.75000004       0.75000004 </v>
   <v>       0.25000000       0.50000000       0.50000000 </v>
   <v>       0.00000000       0.75000004       0.50000000 </v>
   <v>       0.00000000       0.50000000       0.75000004 </v>
   <v>       0.75000004       0.75000004       0.75000004 </v>
   <v>       0.75000004       0.50000000       0.50000000 </v>
   <v>       0.50000000       0.75000004       0.50000000 </v>
   <v>       0.50000000       0.50000000       0.75000004 </v>
   <v>       0.50000000       0.00000000       0.00000000 </v>
   <v>       0.00000000       0.50000000       0.00000000 </v>
   <v>       0.50000000       0.75000004       0.25000000 </v>
   <v>       0.25000000       0.00000000       0.75000004 </v>
   <v>       0.50000000       0.00000000       0.50000000 </v>
   <v>       0.75000004       0.00000000       0.75000004 </v>
   <v>       0.00000000       0.75000004       0.25000000 </v>
   <v>       0.75000004       0.50000000       0.25000000 </v>
   <v>       0.00000000       0.00000000       0.50000000 </v>
   <v>       0.50000000       0.50000000       0.50000000 </v>
   <v>       0.75000004       0.50000000       0.75000004 </v>
   <v>       0.75000004       0.75000004       0.50000000 </v>
  </varray>
 </structure>
 <calculation>
  <scstep>
   <time name="dav">   85.64   85.90</time>
   <time name="total">   85.69   85.96</time>
   <energy>
    <i name="alphaZ">   1755.15524781 </i>
    <i name="ewald"> -30280.78326647 </i>
    <i name="hartreedc"> -12758.23823387 </i>
    <i name="XCdc">   1404.41143581 </i>
    <i name="pawpsdc">  29196.03416555 </i>
    <i name="pawaedc"> -28559.52504320 </i>
    <i name="eentropy">     -0.11625912 </i>
    <i name="bandstr">  -1983.77478058 </i>
    <i name="atom">  45707.61450499 </i>
    <i name="e_fr_energy">   4480.77777093 </i>
    <i name="e_wo_entrp">   4480.89403005 </i>
    <i name="e_0_energy">   4480.83590049 </i>
   </energy>
  </scstep>
  <scstep>
   <time name="dav">   84.12   84.44</time>
   <time name="total">   84.12   84.44</time>
   <energy>
    <i name="e_fr_energy">    225.86458896 </i>
    <i name="e_wo_entrp">    226.17287402 </i>
    <i name="e_0_energy">    226.01873149 </i>
   </energy>
  </scstep>
  <scstep>
   <time name="dav">  125.63  126.01</time>
   <time name="total">  125.63  126.01</time>
   <energy>
    <i name="e_fr_energy">   -531.20816299 </i>
    <i name="e_wo_entrp">   -530.99025435 </i>
    <i name="e_0_energy">   -531.09920867 </i>
   </energy>
  </scstep>
  <scstep>
   <time name="dav">  118.29  118.62</time>
   <time name="total">  118.29  118.62</time>
   <energy>
    <i name="e_fr_energy">   -617.25351646 </i>
    <i name="e_wo_entrp">   -617.00742611 </i>
    <i name="e_0_energy">   -617.13047129 </i>
   </energy>
  </scstep>
  <scstep>
   <time name="dav">  143.43  143.98</time>
   <time name="total">  144.03  144.58</time>
   <energy>
    <i name="e_fr_energy">   -632.20860047 </i>
    <i name="e_wo_entrp">   -631.95229951 </i>
    <i name="e_0_energy">   -632.08044999 </i>
   </energy>
  </scstep>
  <scstep>
   <time name="diag">    2.98    2.98</time>
   <time name="diis">   82.22   82.57</time>
   <time name="orth">    0.71    0.71</time>
   <time name="total">   86.56   86.91</time>
   <energy>
    <i name="e_fr_energy">   -807.77266253 </i>
    <i name="e_wo_entrp">   -807.40828686 </i>
    <i name="e_0_energy">   -807.59047469 </i>
   </energy>
  </scstep>
  <scstep>
   <time name="diag">    2.97    2.97</time>
   <time name="diis">   86.69   88.18</time>
   <time name="orth">    0.71    0.71</time>
   <time name="total">   91.02   92.52</time>
   <energy>
    <i name="e_fr_energy">   -503.24114040 </i>
    <i name="e_wo_entrp">   -502.88588727 </i>
    <i name="e_0_energy">   -503.06351384 </i>
   </energy>
  </scstep>
  <scstep>
   <time name="diag">    2.97    2.97</time>
   <time name="diis">   83.10   83.28</time>
   <time name="orth">    0.71    0.71</time>
   <time name="total">   87.46   87.64</time>
   <energy>
    <i name="e_fr_energy">   -461.92558705 </i>
    <i name="e_wo_entrp">   -461.45254365 </i>
    <i name="e_0_energy">   -461.68906535 </i>
   </energy>
  </scstep>
  <scstep>
   <time name="diag">    2.97    2.97</time>
   <time name="diis">   88.25   88.40</time>
   <time name="orth">    0.71    0.71</time>
   <time name="total">   92.61   92.76</time>
   <energy>
    <i name="e_fr_energy">   -459.11678944 </i>
    <i name="e_wo_entrp">   -458.70082634 </i>
    <i name="e_0_energy">   -458.90880789 </i>
   </energy>
  </scstep>
  <scstep>
   <time name="diag">    2.99    2.99</time>
   <time name="diis">   90.12   90.40</time>
   <time name="orth">    0.71    0.71</time>
   <time name="total">   94.49   94.77</time>
   <energy>
    <i name="e_fr_energy">   -456.15714465 </i>
    <i name="e_wo_entrp">   -455.64433633 </i>
    <i name="e_0_energy">   -455.90074049 </i>
   </energy>
  </scstep>
  <scstep>
   <time name="diag">    2.98    2.98</time>
   <time name="diis">   87.63   87.74</time>
   <time name="orth">    0.71    0.71</time>
   <time name="total">   92.01   92.14</time>
   <energy>
    <i name="e_fr_energy">   -457.53024389 </i>
    <i name="e_wo_entrp">   -457.05269180 </i>
    <i name="e_0_energy">   -457.29146784 </i>
   </energy>
  </scstep>
  <scstep>
   <time name="diag">    3.03    3.06</time>
   <time name="diis">   87.91   88.03</time>
   <time name="orth">    0.71    0.71</time>
   <time name="total">   92.34   92.50</time>
   <energy>
    <i name="e_fr_energy">   -459.99193826 </i>
    <i name="e_wo_entrp">   -459.54506038 </i>
    <i name="e_0_energy">   -459.76849932 </i>
   </energy>
  </scstep>
  <scstep>
   <time name="diag">    2.96    2.96</time>
   <time name="diis">   89.90   90.12</time>
   <time name="orth">    0.71    0.71</time>
   <time name="total">   94.26   94.49</time>
   <energy>
    <i name="e_fr_energy">   -455.69949166 </i>
    <i name="e_wo_entrp">   -455.18348903 </i>
    <i name="e_0_energy">   -455.44149035 </i>
   </energy>
  </scstep>
  <scstep>
   <time name="diag">    3.05    3.10</time>
   <time name="diis">   89.55   89.75</time>
   <time name="orth">    0.71    0.71</time>
   <time name="total">   94.00   94.25</time>
   <energy>
    <i name="e_fr_energy">   -454.40486127 </i>
    <i name="e_wo_entrp">   -453.86218028 </i>
    <i name="e_0_energy">   -454.13352078 </i>
   </energy>
  </scstep>
  <scstep>
   <time name="diag">    2.98    2.98</time>
   <time name="diis">   86.77   86.98</time>
   <time name="orth">    0.71    0.71</time>
   <time name="total">   91.16   91.37</time>
   <energy>
    <i name="e_fr_energy">   -455.67575247 </i>
    <i name="e_wo_entrp">   -455.18046293 </i>
    <i name="e_0_energy">   -455.42810770 </i>
   </energy>
  </scstep>
  <scstep>
   <time name="diag">    2.97    2.99</time>
   <time name="diis">   87.74   87.89</time>
   <time name="orth">    0.71    0.71</time>
   <time name="total">   92.12   92.29</time>
   <energy>
    <i name="e_fr_energy">   -453.99352519 </i>
    <i name="e_wo_entrp">   -453.43812950 </i>
    <i name="e_0_energy">   -453.71582735 </i>
   </energy>
  </scstep>
  <scstep>
   <time name="diag">    2.97    3.00</time>
   <time name="diis">   89.16   89.33</time>
   <time name="orth">    0.70    0.70</time>
   <time name="total">   93.53   93.74</time>
   <energy>
    <i name="e_fr_energy">   -453.76915807 </i>
    <i name="e_wo_entrp">   -453.18218030 </i>
    <i name="e_0_energy">   -453.47566918 </i>
   </energy>
  </scstep>
  <scstep>
   <time name="diag">    2.97    2.97</time>
   <time name="diis">   91.34   91.53</time>
   <time name="orth">    0.71    0.71</time>
   <time name="total">   95.71   95.91</time>
   <energy>
    <i name="e_fr_energy">   -453.69545269 </i>
    <i name="e_wo_entrp">   -453.10613002 </i>
    <i name="e_0_energy">   -453.40079135 </i>
   </energy>
  </scstep>
  <scstep>
   <time name="diag">    2.98    2.99</time>
   <time name="diis">   90.01   90.33</time>
   <time name="orth">    0.71    0.71</time>
   <time name="total">   94.40   94.72</time>
   <energy>
    <i name="e_fr_energy">   -453.72470642 </i>
    <i name="e_wo_entrp">   -453.18193184 </i>
    <i name="e_0_energy">   -453.45331913 </i>
   </energy>
  </scstep>
  <scstep>
   <time name="diag">    3.00    3.00</time>
   <time name="diis">   89.89   90.28</time>
   <time name="orth">    0.71    0.71</time>
   <time name="total">   94.30   94.69</time>
   <energy>
    <i name="e_fr_energy">   -453.56227798 </i>
    <i name="e_wo_entrp">   -452.97589503 </i>
    <i name="e_0_energy">   -453.26908650 </i>
   </energy>
  </scstep>
  <scstep>
   <time name="diag">    2.97    2.97</time>
   <time name="diis">   86.97   87.17</time>
   <time name="orth">    0.70    0.70</time>
   <time name="total">   91.34   91.54</time>
   <energy>
    <i name="e_fr_energy">   -453.42695936 </i>
    <i name="e_wo_entrp">   -452.84177721 </i>
    <i name="e_0_energy">   -453.13436829 </i>
   </energy>
  </scstep>
  <scstep>
   <time name="diag">    2.97    2.98</time>
   <time name="diis">   87.25   87.39</time>
   <time name="orth">    0.71    0.71</time>
   <time name="total">   91.63   91.79</time>
   <energy>
    <i name="e_fr_energy">   -453.41001780 </i>
    <i name="e_wo_entrp">   -452.80922168 </i>
    <i name="e_0_energy">   -453.10961974 </i>
   </energy>
  </scstep>
  <scstep>
   <time name="diag">    2.98    2.98</time>
   <time name="diis">   88.13   88.29</time>
   <time name="orth">    0.71    0.71</time>
   <time name="total">   92.52   92.69</time>
   <energy>
    <i name="e_fr_energy">   -453.38024839 </i>
    <i name="e_wo_entrp">   -452.78435456 </i>
    <i name="e_0_energy">   -453.08230147 </i>
   </energy>
  </scstep>
  <scstep>
   <time name="diag">    2.97    2.97</time>
   <time name="diis">   88.92   89.28</time>
   <time name="orth">    0.71    0.71</time>
   <time name="total">   93.30   93.66</time>
   <energy>
    <i name="e_fr_energy">   -453.37463067 </i>
    <i name="e_wo_entrp">   -452.77172459 </i>
    <i name="e_0_energy">   -453.07317763 </i>
   </energy>
  </scstep>
  <scstep>
   <time name="diag">    2.98    3.00</time>
   <time name="diis">   88.34   88.63</time>
   <time name="orth">    0.70    0.72</time>
   <time name="total">   92.72   93.06</time>
   <energy>
    <i name="e_fr_energy">   -453.37512385 </i>
    <i name="e_wo_entrp">   -452.77589171 </i>
    <i name="e_0_energy">   -453.07550778 </i>
   </energy>
  </scstep>
  <scstep>
   <time name="diag">    2.96    2.96</time>
   <time name="diis">   88.36   88.80</time>
   <time name="orth">    0.71    0.71</time>
   <time name="total">   92.73   93.16</time>
   <energy>
    <i name="e_fr_energy">   -453.38228810 </i>
    <i name="e_wo_entrp">   -452.78045435 </i>
    <i name="e_0_energy">   -453.08137123 </i>
   </energy>
  </scstep>
  <scstep>
   <time name="diag">    2.97    2.97</time>
   <time name="diis">   90.06   90.37</time>
   <time name="orth">    0.71    0.71</time>
   <time name="total">   94.44   94.75</time>
   <energy>
    <i name="e_fr_energy">   -453.38418085 </i>
    <i name="e_wo_entrp">   -452.78147054 </i>
    <i name="e_0_energy">   -453.08282570 </i>
   </energy>
  </scstep>
  <scstep>
   <time name="diag">    2.97    2.97</time>
   <time name="diis">   90.66   90.91</time>
   <time name="orth">    0.71    0.71</time>
   <time name="total">   95.05   95.30</time>
   <energy>
    <i name="e_fr_energy">   -453.38812086 </i>
    <i name="e_wo_entrp">   -452.78262286 </i>
    <i name="e_0_energy">   -453.08537186 </i>
   </energy>
  </scstep>
  <scstep>
   <time name="diag">    2.98    2.98</time>
   <time name="diis">   88.30   88.41</time>
   <time name="orth">    0.71    0.71</time>
   <time name="total">   92.70   92.81</time>
   <energy>
    <i name="e_fr_energy">   -453.39188676 </i>
    <i name="e_wo_entrp">   -452.78601296 </i>
    <i name="e_0_energy">   -453.08894986 </i>
   </energy>
  </scstep>
  <scstep>
   <time name="diag">    2.96    2.96</time>
   <time name="diis">   84.46   84.66</time>
   <time name="orth">    0.70    0.71</time>
   <time name="total">   88.84   89.04</time>
   <energy>
    <i name="e_fr_energy">   -453.39482577 </i>
    <i name="e_wo_entrp">   -452.78834690 </i>
    <i name="e_0_energy">   -453.09158634 </i>
   </energy>
  </scstep>
  <scstep>
   <time name="diag">    2.98    2.98</time>
   <time name="diis">   87.06   87.21</time>
   <time name="orth">    0.71    0.71</time>
   <time name="total">   91.46   91.61</time>
   <energy>
    <i name="e_fr_energy">   -453.39760056 </i>
    <i name="e_wo_entrp">   -452.79013949 </i>
    <i name="e_0_energy">   -453.09387003 </i>
   </energy>
  </scstep>
  <scstep>
   <time name="diag">    3.08    3.09</time>
   <time name="diis">   83.31   83.49</time>
   <time name="orth">    0.72    0.74</time>
   <time name="total">   87.82   88.03</time>
   <energy>
    <i name="e_fr_energy">   -453.39995493 </i>
    <i name="e_wo_entrp">   -452.79208338 </i>
    <i name="e_0_energy">   -453.09601916 </i>
   </energy>
  </scstep>
  <scstep>
   <time name="diag">    2.97    2.97</time>
   <time name="diis">   84.20   84.41</time>
   <time name="orth">    0.73    0.74</time>
   <time name="total">   88.63   88.86</time>
   <energy>
    <i name="e_fr_energy">   -453.40258785 </i>
    <i name="e_wo_entrp">   -452.79490647 </i>
    <i name="e_0_energy">   -453.09874716 </i>
   </energy>
  </scstep>
  <scstep>
   <time name="diag">    3.03    3.05</time>
   <time name="diis">   78.58   78.72</time>
   <time name="orth">    0.71    0.71</time>
   <time name="total">   83.04   83.20</time>
   <energy>
    <i name="e_fr_energy">   -453.40469490 </i>
    <i name="e_wo_entrp">   -452.79656343 </i>
    <i name="e_0_energy">   -453.10062917 </i>
   </energy>
  </scstep>
  <scstep>
   <time name="diag">    2.98    2.98</time>
   <time name="diis">   79.02   79.15</time>
   <time name="orth">    0.70    0.70</time>
   <time name="total">   83.40   83.54</time>
   <energy>
    <i name="e_fr_energy">   -453.40636522 </i>
    <i name="e_wo_entrp">   -452.79790275 </i>
    <i name="e_0_energy">   -453.10213398 </i>
   </energy>
  </scstep>
  <scstep>
   <time name="diag">    2.98    2.98</time>
   <time name="diis">   76.68   76.84</time>
   <time name="orth">    0.72    0.72</time>
   <time name="total">   81.09   81.25</time>
   <energy>
    <i name="e_fr_energy">   -453.40777370 </i>
    <i name="e_wo_entrp">   -452.79911613 </i>
    <i name="e_0_energy">   -453.10344492 </i>
   </energy>
  </scstep>
  <scstep>
   <time name="diag">    2.97    2.97</time>
   <time name="diis">   79.07   79.31</time>
   <time name="orth">    0.70    0.70</time>
   <time name="total">   83.45   83.71</time>
   <energy>
    <i name="e_fr_energy">   -453.40894018 </i>
    <i name="e_wo_entrp">   -452.79966944 </i>
    <i name="e_0_energy">   -453.10430481 </i>
   </energy>
  </scstep>
  <scstep>
   <time name="diag">    2.97    2.97</time>
   <time name="diis">   78.85   79.01</time>
   <time name="orth">    0.71    0.71</time>
   <time name="total">   83.24   83.41</time>
   <energy>
    <i name="e_fr_energy">   -453.41001924 </i>
    <i name="e_wo_entrp">   -452.80035230 </i>
    <i name="e_0_energy">   -453.10518577 </i>
   </energy>
  </scstep>
  <scstep>
   <time name="diag">    3.02    3.03</time>
   <time name="diis">   76.92   77.17</time>
   <time name="orth">    0.71    0.71</time>
   <time name="total">   81.37   81.63</time>
   <energy>
    <i name="e_fr_energy">   -453.41098243 </i>
    <i name="e_wo_entrp">   -452.80122386 </i>
    <i name="e_0_energy">   -453.10610315 </i>
   </energy>
  </scstep>
  <scstep>
   <time name="diag">    2.97    2.97</time>
   <time name="diis">   74.18   74.46</time>
   <time name="orth">    0.71    0.71</time>
   <time name="total">   78.57   78.86</time>
   <energy>
    <i name="e_fr_energy">   -453.41180807 </i>
    <i name="e_wo_entrp">   -452.80157225 </i>
    <i name="e_0_energy">   -453.10669016 </i>
   </energy>
  </scstep>
  <scstep>
   <time name="diag">    2.97    2.97</time>
   <time name="diis">   68.09   68.26</time>
   <time name="orth">    0.71    0.71</time>
   <time name="total">   72.50   72.67</time>
   <energy>
    <i name="e_fr_energy">   -453.41249418 </i>
    <i name="e_wo_entrp">   -452.80210066 </i>
    <i name="e_0_energy">   -453.10729742 </i>
   </energy>
  </scstep>
  <scstep>
   <time name="diag">    2.97    2.97</time>
   <time name="diis">   58.03   58.17</time>
   <time name="orth">    0.71    0.71</time>
   <time name="total">   62.42   62.56</time>
   <energy>
    <i name="e_fr_energy">   -453.41309113 </i>
    <i name="e_wo_entrp">   -452.80250803 </i>
    <i name="e_0_energy">   -453.10779958 </i>
   </energy>
  </scstep>
  <scstep>
   <time name="diag">    2.97    2.98</time>
   <time name="diis">   69.49   69.66</time>
   <time name="orth">    0.76    0.78</time>
   <time name="total">   73.98   74.18</time>
   <energy>
    <i name="e_fr_energy">   -453.41360773 </i>
    <i name="e_wo_entrp">   -452.80282243 </i>
    <i name="e_0_energy">   -453.10821508 </i>
   </energy>
  </scstep>
  <scstep>
   <time name="diag">    3.01    3.01</time>
   <time name="diis">   63.69   64.01</time>
   <time name="orth">    0.72    0.72</time>
   <time name="total">   68.13   68.46</time>
   <energy>
    <i name="e_fr_energy">   -453.41406251 </i>
    <i name="e_wo_entrp">   -452.80315455 </i>
    <i name="e_0_energy">   -453.10860853 </i>
   </energy>
  </scstep>
  <scstep>
   <time name="diag">    2.97    3.00</time>
   <time name="diis">   50.46   50.60</time>
   <time name="orth">    0.71    0.71</time>
   <time name="total">   54.85   55.02</time>
   <energy>
    <i name="e_fr_energy">   -453.41445248 </i>
    <i name="e_wo_entrp">   -452.80330410 </i>
    <i name="e_0_energy">   -453.10887829 </i>
   </energy>
  </scstep>
  <scstep>
   <time name="diag">    2.97    2.98</time>
   <time name="diis">   48.56   48.68</time>
   <time name="orth">    0.74    0.74</time>
   <time name="total">   52.98   53.13</time>
   <energy>
    <i name="e_fr_energy">   -453.41478776 </i>
    <i name="e_wo_entrp">   -452.80356367 </i>
    <i name="e_0_energy">   -453.10917572 </i>
   </energy>
  </scstep>
  <scstep>
   <time name="diag">    2.97    2.98</time>
   <time name="diis">   47.92   47.99</time>
   <time name="orth">    0.71    0.71</time>
   <time name="total">   52.33   52.40</time>
   <energy>
    <i name="e_fr_energy">   -453.41508247 </i>
    <i name="e_wo_entrp">   -452.80367800 </i>
    <i name="e_0_energy">   -453.10938023 </i>
   </energy>
  </scstep>
  <scstep>
   <time name="diag">    2.98    2.98</time>
   <time name="diis">   47.40   47.54</time>
   <time name="orth">    0.74    0.74</time>
   <time name="total">   51.84   51.98</time>
   <energy>
    <i name="e_fr_energy">   -453.41533476 </i>
    <i name="e_wo_entrp">   -452.80382102 </i>
    <i name="e_0_energy">   -453.10957789 </i>
   </energy>
  </scstep>
  <scstep>
   <time name="diag">    2.96    2.96</time>
   <time name="diis">   48.31   48.36</time>
   <time name="orth">    0.71    0.71</time>
   <time name="total">   52.70   52.75</time>
   <energy>
    <i name="e_fr_energy">   -453.41555726 </i>
    <i name="e_wo_entrp">   -452.80393685 </i>
    <i name="e_0_energy">   -453.10974706 </i>
   </energy>
  </scstep>
  <scstep>
   <time name="diag">    2.98    2.98</time>
   <time name="diis">   46.37   47.43</time>
   <time name="orth">    0.71    0.71</time>
   <time name="total">   50.77   51.84</time>
   <energy>
    <i name="e_fr_energy">   -453.41574941 </i>
    <i name="e_wo_entrp">   -452.80402051 </i>
    <i name="e_0_energy">   -453.10988496 </i>
   </energy>
  </scstep>
  <scstep>
   <time name="diag">    2.96    2.96</time>
   <time name="diis">   47.56   47.73</time>
   <time name="orth">    0.71    0.71</time>
   <time name="total">   51.94   52.11</time>
   <energy>
    <i name="e_fr_energy">   -453.41591693 </i>
    <i name="e_wo_entrp">   -452.80410484 </i>
    <i name="e_0_energy">   -453.11001089 </i>
   </energy>
  </scstep>
  <scstep>
   <time name="diag">    2.97    2.97</time>
   <time name="diis">   47.01   47.12</time>
   <time name="orth">    0.75    0.76</time>
   <time name="total">   51.44   51.55</time>
   <energy>
    <i name="e_fr_energy">   -453.41606076 </i>
    <i name="e_wo_entrp">   -452.80416752 </i>
    <i name="e_0_energy">   -453.11011414 </i>
   </energy>
  </scstep>
  <scstep>
   <time name="diag">    3.00    3.00</time>
   <time name="diis">   46.42   46.49</time>
   <time name="orth">    0.70    0.71</time>
   <time name="total">   50.83   50.91</time>
   <energy>
    <i name="e_fr_energy">   -453.41618797 </i>
    <i name="e_wo_entrp">   -452.80421920 </i>
    <i name="e_0_energy">   -453.11020359 </i>
   </energy>
  </scstep>
  <scstep>
   <time name="diag">    2.98    2.98</time>
   <time name="diis">   46.31   46.41</time>
   <time name="orth">    0.71    0.71</time>
   <time name="total">   50.71   50.81</time>
   <energy>
    <i name="e_fr_energy">   -453.41629773 </i>
    <i name="e_wo_entrp">   -452.80426115 </i>
    <i name="e_0_energy">   -453.11027944 </i>
   </energy>
  </scstep>
  <scstep>
   <time name="diag">    2.96    2.96</time>
   <time name="diis">   46.25   46.39</time>
   <time name="orth">    0.72    0.72</time>
   <time name="total">   50.65   50.79</time>
   <energy>
    <i name="e_fr_energy">   -453.41639416 </i>
    <i name="e_wo_entrp">   -452.80429615 </i>
    <i name="e_0_energy">   -453.11034515 </i>
   </energy>
  </scstep>
  <scstep>
   <time name="diag">    2.97    2.97</time>
   <time name="diis">   46.23   46.32</time>
   <time name="orth">    0.70    0.70</time>
   <time name="total">   50.62   50.70</time>
   <energy>
    <i name="e_fr_energy">   -453.41647801 </i>
    <i name="e_wo_entrp">   -452.80432533 </i>
    <i name="e_0_energy">   -453.11040167 </i>
   </energy>
  </scstep>
  <scstep>
   <time name="diag">    2.96    2.96</time>
   <time name="diis">   45.80   45.96</time>
   <time name="orth">    0.71    0.71</time>
   <time name="total">   50.20   50.36</time>
   <energy>
    <i name="e_fr_energy">   -453.41655158 </i>
    <i name="e_wo_entrp">   -452.80434812 </i>
    <i name="e_0_energy">   -453.11044985 </i>
   </energy>
  </scstep>
  <scstep>
   <time name="diag">    2.99    3.00</time>
   <time name="diis">   46.70   46.82</time>
   <time name="orth">    0.70    0.71</time>
   <time name="total">   51.10   51.24</time>
   <energy>
    <i name="e_fr_energy">   -453.41661573 </i>
    <i name="e_wo_entrp">   -452.80436655 </i>
    <i name="e_0_energy">   -453.11049114 </i>
   </energy>
  </scstep>
  <scstep>
   <time name="diag">    2.98    2.98</time>
   <time name="diis">   46.26   46.35</time>
   <time name="orth">    0.77    0.78</time>
   <time name="total">   50.71   50.82</time>
   <energy>
    <i name="e_fr_energy">   -453.41667216 </i>
    <i name="e_wo_entrp">   -452.80438204 </i>
    <i name="e_0_energy">   -453.11052710 </i>
   </energy>
  </scstep>
  <scstep>
   <time name="diag">    2.97    2.97</time>
   <time name="diis">   46.00   46.11</time>
   <time name="orth">    0.71    0.71</time>
   <time name="total">   49.72   49.84</time>
   <energy>
    <i name="alphaZ">   1755.15524781 </i>
    <i name="ewald"> -30280.78326647 </i>
    <i name="hartreedc"> -11947.35058182 </i>
    <i name="XCdc">   1381.13692506 </i>
    <i name="pawpsdc">  27259.00986040 </i>
    <i name="pawaedc"> -26679.09503434 </i>
    <i name="eentropy">     -0.61232743 </i>
    <i name="bandstr">  -7648.49204959 </i>
    <i name="atom">  45707.61450499 </i>
    <i name="e_fr_energy">   -453.41672139 </i>
    <i name="e_wo_entrp">   -452.80439396 </i>
    <i name="e_0_energy">   -453.11055768 </i>
   </energy>
  </scstep>
  <structure>
   <crystal>
    <varray name="basis" >
     <v>      11.23999977       0.00000000       0.00000000 </v>
     <v>       0.00000000      11.23999977       0.00000000 </v>
     <v>       0.00000000       0.00000000      11.23999977 </v>
    </varray>
    <i name="volume">   1420.03453724 </i>
    <varray name="rec_basis" >
     <v>       0.08896797       0.00000000       0.00000000 </v>
     <v>       0.00000000       0.08896797       0.00000000 </v>
     <v>       0.00000000       0.00000000       0.08896797 </v>
    </varray>
   </crystal>
   <varray name="positions" >
    <v>       0.00000000       0.00000000       0.00000000 </v>
    <v>       0.25000000       0.00000000       0.25000000 </v>
    <v>       0.25000000       0.50000000       0.25000000 </v>
    <v>       0.50000000       0.50000000       0.00000000 </v>
    <v>       0.50000000       0.25000000       0.75000004 </v>
    <v>       0.00000000       0.50000000       0.50000000 </v>
    <v>       0.50000000       0.75000004       0.75000004 </v>
    <v>       0.00000000       0.25000000       0.25000000 </v>
    <v>       0.75000004       0.75000004       0.00000000 </v>
    <v>       0.00000000       0.25000000       0.75000004 </v>
    <v>       0.75000004       0.25000000       0.50000000 </v>
    <v>       0.00000000       0.75000004       0.75000004 </v>
    <v>       0.25000000       0.50000000       0.75000004 </v>
    <v>       0.25000000       0.25000000       0.00000000 </v>
    <v>       0.50000000       0.25000000       0.25000000 </v>
    <v>       0.75000004       0.00000000       0.25000000 </v>
    <v>       0.75000004       0.25000000       0.00000000 </v>
    <v>       0.25000000       0.75000004       0.00000000 </v>
    <v>       0.25000000       0.25000000       0.50000000 </v>
    <v>       0.25000000       0.75000004       0.50000000 </v>
    <v>       0.25000000       0.25000000       0.25000000 </v>
    <v>       0.25000000       0.00000000       0.00000000 </v>
    <v>       0.00000000       0.25000000       0.00000000 </v>
    <v>       0.75000004       0.25000000       0.25000000 </v>
    <v>       0.75000004       0.00000000       0.00000000 </v>
    <v>       0.50000000       0.00000000       0.25000000 </v>
    <v>       0.00000000       0.50000000       0.25000000 </v>
    <v>       0.50000000       0.75000004       0.00000000 </v>
    <v>       0.00000000       0.00000000       0.75000004 </v>
    <v>       0.75000004       0.25000000       0.75000004 </v>
    <v>       0.75000004       0.00000000       0.50000000 </v>
    <v>       0.50000000       0.25000000       0.50000000 </v>
    <v>       0.50000000       0.00000000       0.75000004 </v>
    <v>       0.00000000       0.00000000       0.25000000 </v>
    <v>       0.50000000       0.25000000       0.00000000 </v>
    <v>       0.25000000       0.75000004       0.25000000 </v>
    <v>       0.25000000       0.50000000       0.00000000 </v>
    <v>       0.00000000       0.75000004       0.00000000 </v>
    <v>       0.75000004       0.75000004       0.25000000 </v>
    <v>       0.75000004       0.50000000       0.00000000 </v>
    <v>       0.50000000       0.50000000       0.25000000 </v>
    <v>       0.25000000       0.25000000       0.75000004 </v>
    <v>       0.25000000       0.00000000       0.50000000 </v>
    <v>       0.00000000       0.25000000       0.50000000 </v>
    <v>       0.25000000       0.75000004       0.75000004 </v>
    <v>       0.25000000       0.50000000       0.50000000 </v>
    <v>       0.00000000       0.75000004       0.50000000 </v>
    <v>       0.00000000       0.50000000       0.75000004 </v>
    <v>       0.75000004       0.75000004       0.75000004 </v>
    <v>       0.75000004       0.50000000       0.50000000 </v>
    <v>       0.50000000       0.75000004       0.50000000 </v>
    <v>       0.50000000       0.50000000       0.75000004 </v>
    <v>       0.50000000       0.00000000       0.00000000 </v>
    <v>       0.00000000       0.50000000       0.00000000 </v>
    <v>       0.50000000       0.75000004       0.25000000 </v>
    <v>       0.25000000       0.00000000       0.75000004 </v>
    <v>       0.50000000       0.00000000       0.50000000 </v>
    <v>       0.75000004       0.00000000       0.75000004 </v>
    <v>       0.00000000       0.75000004       0.25000000 </v>
    <v>       0.75000004       0.50000000       0.25000000 </v>
    <v>       0.00000000       0.00000000       0.50000000 </v>
    <v>       0.50000000       0.50000000       0.50000000 </v>
    <v>       0.75000004       0.50000000       0.75000004 </v>
    <v>       0.75000004       0.75000004       0.50000000 </v>
   </varray>
  </structure>
  <varray name="forces" >
   <v>      -0.08182685      -0.35588411       0.20109444 </v>
   <v>      -0.44776081      -0.36496409       0.38833622 </v>
   <v>       0.12760368       0.36791392       0.04592953 </v>
   <v>       0.05928826      -0.12584392      -0.05216365 </v>
   <v>      -0.23699074       0.31313210       0.13926282 </v>
   <v>      -0.05650771      -0.00405542       0.19652785 </v>
   <v>       0.03873558      -0.30362063      -0.30273824 </v>
   <v>      -0.12923266      -0.52150300       0.53759114 </v>
   <v>       0.62213494      -0.58444129      -0.06445888 </v>
   <v>       0.48228394       0.48176628      -0.59695885 </v>
   <v>       0.64738076       0.48656659       0.21348424 </v>
   <v>      -0.12563959      -0.46761454      -0.05953086 </v>
   <v>       0.01088552       0.02631573      -0.01527028 </v>
   <v>      -0.03416484       0.32292886      -0.41684943 </v>
   <v>       0.10713225       0.42054686      -0.07425920 </v>
   <v>       0.45735319      -0.33105907       0.18695432 </v>
   <v>      -0.04170334       0.40074590      -0.17136692 </v>
   <v>      -0.24167498      -0.32072349      -0.07966605 </v>
   <v>      -0.30197031       0.06894642       0.40106376 </v>
   <v>      -0.05949041      -0.06321579       0.09534099 </v>
   <v>       0.61671230      -0.07112650      -0.04188545 </v>
   <v>       0.22082743       0.05734513      -0.15294431 </v>
   <v>       0.03182238       0.19355700       0.02243620 </v>
   <v>      -0.55781639      -0.68316635      -0.49505333 </v>
   <v>      -0.22591997       0.60884804       0.26416177 </v>
   <v>       0.57758591       0.35849078      -0.00516370 </v>
   <v>       0.05068251      -0.22194428      -0.31366327 </v>
   <v>      -0.56844863       0.27804336       0.21104291 </v>
   <v>      -0.12958564       0.03085468       0.17873925 </v>
   <v>      -0.05406118      -0.49157358       0.50940677 </v>
   <v>      -0.36861745       0.19294689      -0.24070547 </v>
   <v>      -0.50400715      -0.42926529      -0.52830753 </v>
   <v>       0.10482066       0.02655898      -0.01291180 </v>
   <v>      -0.46616667       0.33511845      -0.09914642 </v>
   <v>       0.03468764      -0.44336184       0.44891852 </v>
   <v>       0.47753340       0.06313895      -0.09269853 </v>
   <v>      -0.39280990      -0.06812879      -0.04459777 </v>
   <v>       0.13815338      -0.33978224      -0.24642903 </v>
   <v>      -0.44765433       0.46380336      -0.24439804 </v>
   <v>       0.39201015      -0.24415719       0.02367888 </v>
   <v>       0.01710906      -0.08427147      -0.03113894 </v>
   <v>      -0.14455096      -0.25359565       0.05319163 </v>
   <v>       0.42605070       0.08635527       0.28677046 </v>
   <v>       0.05120736       0.04136257       0.01185488 </v>
   <v>      -0.09392891       0.26261879       0.06949811 </v>
   <v>      -0.09951766      -0.07772966       0.07720624 </v>
   <v>       0.35742669      -0.04402763       0.28559560 </v>
   <v>       0.13179921      -0.01221385       0.35586753 </v>
   <v>       0.16485372       0.47271331       0.24316492 </v>
   <v>       0.07937534      -0.32769074      -0.01664900 </v>
   <v>      -0.36705689       0.44027160      -0.31428235 </v>
   <v>      -0.16578951      -0.01836117       0.01852422 </v>
   <v>       0.17135991       0.27426332      -0.16379391 </v>
   <v>      -0.11356394       0.49040377      -0.35908139 </v>
   <v>       0.17022181      -0.52468904       0.39965999 </v>
   <v>      -0.13265474      -0.05390757      -0.52715454 </v>
   <v>      -0.30525393      -0.50418850       0.15058668 </v>
   <v>       0.16719351      -0.49711371      -0.16673184 </v>
   <v>      -0.11502061       0.33415489       0.05917682 </v>
   <v>      -0.22134336       0.48957533       0.04611313 </v>
   <v>       0.22007705       0.04049798      -0.23012664 </v>
   <v>       0.05618803       0.38108882       0.05663093 </v>
   <v>      -0.05399175       0.40371460      -0.04082937 </v>
   <v>       0.07422555      -0.38136815       0.02314425 </v>
  </varray>
  <varray name="stress" >
   <v>    -412.79504731       0.08078294       0.22556874 </v>
   <v>       0.08078303    -411.96962213       0.32795624 </v>
   <v>       0.22556895       0.32795687    -411.94997942 </v>
  </varray>
  <energy>
   <i name="e_fr_energy">   -453.41672139 </i>
   <i name="e_wo_entrp">   -453.11055768 </i>
   <i name="e_0_energy">     -0.61232743 </i>
  </energy>
  <time name="totalsc"> 4963.41 4978.65</time>
 </calculation>
 <calculation>
  <scstep>
   <time name="dav">   88.11   88.29</time>
   <time name="total">   88.73   88.92</time>
   <energy>
    <i name="alphaZ">   4613.68456706 </i>
    <i name="ewald"> -41809.48280248 </i>
    <i name="hartreedc"> -16466.08910601 </i>
    <i name="XCdc">   2064.20917927 </i>
    <i name="pawpsdc">  27258.99913567 </i>
    <i name="pawaedc"> -26679.08435929 </i>
    <i name="eentropy">     -0.07453525 </i>
    <i name="bandstr">   1616.17240104 </i>
    <i name="atom">  45707.61450499 </i>
    <i name="e_fr_energy">  -3694.05101499 </i>
    <i name="e_wo_entrp">  -3693.97647974 </i>
    <i name="e_0_energy">  -3694.01374737 </i>
   </energy>
  </scstep>
  <scstep>
   <time name="diag">    3.00    3.00</time>
   <time name="diis">   87.31   87.61</time>
   <time name="orth">    0.71    0.71</time>
   <time name="total">   91.63   91.94</time>
   <energy>
    <i name="e_fr_energy">  -1261.50705857 </i>
    <i name="e_wo_entrp">  -1261.44866620 </i>
    <i name="e_0_energy">  -1261.47786238 </i>
   </energy>
  </scstep>
  <scstep>
   <time name="diag">    2.97    2.97</time>
   <time name="diis">   67.19   67.35</time>
   <time name="orth">    0.70    0.70</time>
   <time name="total">   71.48   71.65</time>
   <energy>
    <i name="e_fr_energy">   -600.05176724 </i>
    <i name="e_wo_entrp">   -599.96652789 </i>
    <i name="e_0_energy">   -600.00914757 </i>
   </energy>
  </scstep>
  <scstep>
   <time name="diag">    2.99    3.00</time>
   <time name="diis">   83.25   83.48</time>
   <time name="orth">    0.71    0.71</time>
   <time name="total">   87.57   87.80</time>
   <energy>
    <i name="e_fr_energy">   -618.42657237 </i>
    <i name="e_wo_entrp">   -618.32271501 </i>
    <i name="e_0_energy">   -618.37464369 </i>
   </energy>
  </scstep>
  <scstep>
   <time name="diag">    3.00    3.03</time>
   <time name="diis">   89.32   89.47</time>
   <time name="orth">    0.73    0.73</time>
   <time name="total">   93.67   93.85</time>
   <energy>
    <i name="e_fr_energy">   -603.20524661 </i>
    <i name="e_wo_entrp">   -603.07087053 </i>
    <i name="e_0_energy">   -603.13805857 </i>
   </energy>
  </scstep>
  <scstep>
   <time name="diag">    2.99    2.99</time>
   <time name="diis">  100.03  100.29</time>
   <time name="orth">    0.71    0.72</time>
   <time name="total">  104.35  104.63</time>
   <energy>
    <i name="e_fr_energy">   -593.61919897 </i>
    <i name="e_wo_entrp">   -593.50053520 </i>
    <i name="e_0_energy">   -593.55986709 </i>
   </energy>
  </scstep>
  <scstep>
   <time name="diag">    2.99    2.99</time>
   <time name="diis">   99.22   99.51</time>
   <time name="orth">    0.71    0.71</time>
   <time name="total">  103.54  103.83</time>
   <energy>
    <i name="e_fr_energy">   -598.68095991 </i>
    <i name="e_wo_entrp">   -598.55476864 </i>
    <i name="e_0_energy">   -598.61786428 </i>
   </energy>
  </scstep>
  <scstep>
   <time name="diag">    3.00    3.02</time>
   <time name="diis">   99.44   99.62</time>
   <time name="orth">    0.71    0.71</time>
   <time name="total">  103.77  103.97</time>
   <energy>
    <i name="e_fr_energy">   -597.40005498 </i>
    <i name="e_wo_entrp">   -597.26289676 </i>
    <i name="e_0_energy">   -597.33147587 </i>
   </energy>
  </scstep>
  <scstep>
   <time name="diag">    3.07    3.10</time>
   <time name="diis">   99.68   99.87</time>
   <time name="orth">    0.71    0.71</time>
   <time name="total">  104.08  104.31</time>
   <energy>
    <i name="e_fr_energy">   -599.11607246 </i>
    <i name="e_wo_entrp">   -598.98746510 </i>
    <i name="e_0_energy">   -599.05176878 </i>
   </energy>
  </scstep>
  <scstep>
   <time name="diag">    3.00    3.01</time>
   <time name="diis">  101.03  101.22</time>
   <time name="orth">    0.70    0.70</time>
   <time name="total">  105.36  105.56</time>
   <energy>
    <i name="e_fr_energy">   -600.62237829 </i>
    <i name="e_wo_entrp">   -600.48681990 </i>
    <i name="e_0_energy">   -600.55459909 </i>
   </energy>
  </scstep>
  <scstep>
   <time name="diag">    3.00    3.01</time>
   <time name="diis">  100.85  101.09</time>
   <time name="orth">    0.72    0.72</time>
   <time name="total">  105.22  105.47</time>
   <energy>
    <i name="e_fr_energy">   -601.56726140 </i>
    <i name="e_wo_entrp">   -601.42861767 </i>
    <i name="e_0_energy">   -601.49793953 </i>
   </energy>
  </scstep>
  <scstep>
   <time name="diag">    3.02    3.03</time>
   <time name="diis">  101.67  101.95</time>
   <time name="orth">    0.72    0.72</time>
   <time name="total">  106.04  106.34</time>
   <energy>
    <i name="e_fr_energy">   -602.12477485 </i>
    <i name="e_wo_entrp">   -601.99122903 </i>
    <i name="e_0_energy">   -602.05800194 </i>
   </energy>
  </scstep>
  <scstep>
   <time name="diag">    3.04    3.05</time>
   <time name="diis">  100.12  100.47</time>
   <time name="orth">    0.71    0.71</time>
   <time name="total">  104.50  104.87</time>
   <energy>
    <i name="e_fr_energy">   -602.27829319 </i>
    <i name="e_wo_entrp">   -602.14166580 </i>
    <i name="e_0_energy">   -602.20997949 </i>
   </energy>
  </scstep>
  <scstep>
   <time name="diag">    3.02    3.02</time>
   <time name="diis">  101.05  101.27</time>
   <time name="orth">    0.71    0.73</time>
   <time name="total">  105.40  105.65</time>
   <energy>
    <i name="e_fr_energy">   -602.38621748 </i>
    <i name="e_wo_entrp">   -602.24939071 </i>
    <i name="e_0_energy">   -602.31780409 </i>
   </energy>
  </scstep>
  <scstep>
   <time name="diag">    2.98    2.98</time>
   <time name="diis">  101.05  101.52</time>
   <time name="orth">    0.71    0.71</time>
   <time name="total">  105.38  105.85</time>
   <energy>
    <i name="e_fr_energy">   -602.43880468 </i>
    <i name="e_wo_entrp">   -602.30282024 </i>
    <i name="e_0_energy">   -602.37081246 </i>
   </energy>
  </scstep>
  <scstep>
   <time name="diag">    2.99    2.99</time>
   <time name="diis">  101.74  102.07</time>
   <time name="orth">    0.71    0.71</time>
   <time name="total">  106.08  106.41</time>
   <energy>
    <i name="e_fr_energy">   -602.46693794 </i>
    <i name="e_wo_entrp">   -602.33000854 </i>
    <i name="e_0_energy">   -602.39847324 </i>
   </energy>
  </scstep>
  <scstep>
   <time name="diag">    3.01    3.02</time>
   <time name="diis">  103.06  103.34</time>
   <time name="orth">    0.71    0.71</time>
   <time name="total">  107.42  107.69</time>
   <energy>
    <i name="e_fr_energy">   -602.48298107 </i>
    <i name="e_wo_entrp">   -602.34591205 </i>
    <i name="e_0_energy">   -602.41444656 </i>
   </energy>
  </scstep>
  <scstep>
   <time name="diag">    2.99    2.99</time>
   <time name="diis">  103.00  103.36</time>
   <time name="orth">    0.71    0.71</time>
   <time name="total">  107.32  107.69</time>
   <energy>
    <i name="e_fr_energy">   -602.49397212 </i>
    <i name="e_wo_entrp">   -602.35728079 </i>
    <i name="e_0_energy">   -602.42562646 </i>
   </energy>
  </scstep>
  <scstep>
   <time name="diag">    2.99    2.99</time>
   <time name="diis">  100.57  100.96</time>
   <time name="orth">    0.71    0.71</time>
   <time name="total">  104.90  105.29</time>
   <energy>
    <i name="e_fr_energy">   -602.50004821 </i>
    <i name="e_wo_entrp">   -602.36324064 </i>
    <i name="e_0_energy">   -602.43164443 </i>
   </energy>
  </scstep>
  <scstep>
   <time name="diag">    2.99    2.99</time>
   <time name="diis">  102.82  103.14</time>
   <time name="orth">    0.71    0.71</time>
   <time name="total">  107.14  107.47</time>
   <energy>
    <i name="e_fr_energy">   -602.50406209 </i>
    <i name="e_wo_entrp">   -602.36716696 </i>
    <i name="e_0_energy">   -602.43561453 </i>
   </energy>
  </scstep>
  <scstep>
   <time name="diag">    2.99    3.00</time>
   <time name="diis">  101.31  101.54</time>
   <time name="orth">    0.71    0.71</time>
   <time name="total">  105.64  105.88</time>
   <energy>
    <i name="e_fr_energy">   -602.50612575 </i>
    <i name="e_wo_entrp">   -602.36926501 </i>
    <i name="e_0_energy">   -602.43769538 </i>
   </energy>
  </scstep>
  <scstep>
   <time name="diag">    3.03    3.06</time>
   <time name="diis">  101.27  101.56</time>
   <time name="orth">    0.71    0.71</time>
   <time name="total">  105.64  105.97</time>
   <energy>
    <i name="e_fr_energy">   -602.50747003 </i>
    <i name="e_wo_entrp">   -602.37063093 </i>
    <i name="e_0_energy">   -602.43905048 </i>
   </energy>
  </scstep>
  <scstep>
   <time name="diag">    3.01    3.02</time>
   <time name="diis">  101.91  102.21</time>
   <time name="orth">    0.71    0.71</time>
   <time name="total">  106.27  106.58</time>
   <energy>
    <i name="e_fr_energy">   -602.50819687 </i>
    <i name="e_wo_entrp">   -602.37140302 </i>
    <i name="e_0_energy">   -602.43979995 </i>
   </energy>
  </scstep>
  <scstep>
   <time name="diag">    3.00    3.01</time>
   <time name="diis">  101.00  101.21</time>
   <time name="orth">    0.70    0.70</time>
   <time name="total">  105.34  105.56</time>
   <energy>
    <i name="e_fr_energy">   -602.50872684 </i>
    <i name="e_wo_entrp">   -602.37189825 </i>
    <i name="e_0_energy">   -602.44031255 </i>
   </energy>
  </scstep>
  <scstep>
   <time name="diag">    3.00    3.00</time>
   <time name="diis">   97.18   97.36</time>
   <time name="orth">    0.71    0.71</time>
   <time name="total">  101.51  101.70</time>
   <energy>
    <i name="e_fr_energy">   -602.50901506 </i>
    <i name="e_wo_entrp">   -602.37218902 </i>
    <i name="e_0_energy">   -602.44060204 </i>
   </energy>
  </scstep>
  <scstep>
   <time name="diag">    3.02    3.02</time>
   <time name="diis">   98.83   99.00</time>
   <time name="orth">    0.71    0.71</time>
   <time name="total">  103.19  103.37</time>
   <energy>
    <i name="e_fr_energy">   -602.50922486 </i>
    <i name="e_wo_entrp">   -602.37239812 </i>
    <i name="e_0_energy">   -602.44081149 </i>
   </energy>
  </scstep>
  <scstep>
   <time name="diag">    2.99    2.99</time>
   <time name="diis">   94.42   94.71</time>
   <time name="orth">    0.71    0.71</time>
   <time name="total">   98.77   99.05</time>
   <energy>
    <i name="e_fr_energy">   -602.50933958 </i>
    <i name="e_wo_entrp">   -602.37251142 </i>
    <i name="e_0_energy">   -602.44092550 </i>
   </energy>
  </scstep>
  <scstep>
   <time name="diag">    2.99    2.99</time>
   <time name="diis">   94.87   95.20</time>
   <time name="orth">    0.70    0.71</time>
   <time name="total">   99.20   99.54</time>
   <energy>
    <i name="e_fr_energy">   -602.50942496 </i>
    <i name="e_wo_entrp">   -602.37259736 </i>
    <i name="e_0_energy">   -602.44101116 </i>
   </energy>
  </scstep>
  <scstep>
   <time name="diag">    3.03    3.08</time>
   <time name="diis">   85.90   87.01</time>
   <time name="orth">    0.71    0.71</time>
   <time name="total">   90.28   91.46</time>
   <energy>
    <i name="e_fr_energy">   -602.50947124 </i>
    <i name="e_wo_entrp">   -602.37264409 </i>
    <i name="e_0_energy">   -602.44105767 </i>
   </energy>
  </scstep>
  <scstep>
   <time name="diag">    2.98    2.99</time>
   <time name="diis">   86.64   86.80</time>
   <time name="orth">    0.71    0.71</time>
   <time name="total">   90.98   91.14</time>
   <energy>
    <i name="e_fr_energy">   -602.50950756 </i>
    <i name="e_wo_entrp">   -602.37268011 </i>
    <i name="e_0_energy">   -602.44109383 </i>
   </energy>
  </scstep>
  <scstep>
   <time name="diag">    3.05    3.08</time>
   <time name="diis">   77.59   77.77</time>
   <time name="orth">    0.70    0.70</time>
   <time name="total">   81.99   82.20</time>
   <energy>
    <i name="e_fr_energy">   -602.50952681 </i>
    <i name="e_wo_entrp">   -602.37269958 </i>
    <i name="e_0_energy">   -602.44111320 </i>
   </energy>
  </scstep>
  <scstep>
   <time name="diag">    2.98    2.98</time>
   <time name="diis">   77.50   77.64</time>
   <time name="orth">    0.72    0.73</time>
   <time name="total">   81.84   81.99</time>
   <energy>
    <i name="e_fr_energy">   -602.50954210 </i>
    <i name="e_wo_entrp">   -602.37271469 </i>
    <i name="e_0_energy">   -602.44112840 </i>
   </energy>
  </scstep>
  <scstep>
   <time name="diag">    3.01    3.02</time>
   <time name="diis">   68.06   68.17</time>
   <time name="orth">    0.71    0.71</time>
   <time name="total">   72.43   72.54</time>
   <energy>
    <i name="e_fr_energy">   -602.50955035 </i>
    <i name="e_wo_entrp">   -602.37272320 </i>
    <i name="e_0_energy">   -602.44113677 </i>
   </energy>
  </scstep>
  <scstep>
   <time name="diag">    3.00    3.01</time>
   <time name="diis">   65.49   65.71</time>
   <time name="orth">    0.71    0.71</time>
   <time name="total">   69.25   69.47</time>
   <energy>
    <i name="alphaZ">   4613.68456706 </i>
    <i name="ewald"> -41809.48280248 </i>
    <i name="hartreedc">  -7567.05785436 </i>
    <i name="XCdc">   1577.42380124 </i>
    <i name="pawpsdc">  33653.00660974 </i>
    <i name="pawaedc"> -33022.84320626 </i>
    <i name="eentropy">     -0.13682701 </i>
    <i name="bandstr">  -3754.71835010 </i>
    <i name="atom">  45707.61450499 </i>
    <i name="e_fr_energy">   -602.50955717 </i>
    <i name="e_wo_entrp">   -602.37273016 </i>
    <i name="e_0_energy">   -602.44114367 </i>
   </energy>
  </scstep>
  <structure>
   <crystal>
    <varray name="basis" >
     <v>       8.14015231       0.00060663       0.00169389 </v>
     <v>       0.00060663       8.14635076       0.00246276 </v>
     <v>       0.00169389       0.00246276       8.14649827 </v>
    </varray>
    <i name="volume">    540.21488333 </i>
    <varray name="rec_basis" >
     <v>       0.12284783      -0.00000914      -0.00002554 </v>
     <v>      -0.00000914       0.12275436      -0.00003711 </v>
     <v>      -0.00002554      -0.00003711       0.12275214 </v>
    </varray>
   </crystal>
   <varray name="positions" >
    <v>      -0.00035121      -0.00152747       0.00086311 </v>
    <v>       0.24807819      -0.00156644       0.25166676 </v>
    <v>       0.25054768       0.50157911       0.25019713 </v>
    <v>       0.50025447       0.49945987      -0.00022389 </v>
    <v>       0.49898282       0.25134398       0.75059777 </v>
    <v>      -0.00024253       0.49998259       0.50084351 </v>
    <v>       0.50016626       0.74869689       0.74870067 </v>
    <v>      -0.00055467       0.24776168       0.25230737 </v>
    <v>       0.75267028       0.74749159      -0.00027666 </v>
    <v>       0.00206999       0.25206777       0.74743786 </v>
    <v>       0.75277863       0.25208837       0.50091629 </v>
    <v>      -0.00053925       0.74799302       0.74974453 </v>
    <v>       0.25004672       0.50011295       0.74993450 </v>
    <v>       0.24985336       0.25138603      -0.00178914 </v>
    <v>       0.50045982       0.25180501       0.24968128 </v>
    <v>       0.75196303      -0.00142092       0.25080242 </v>
    <v>       0.74982105       0.25172002      -0.00073552 </v>
    <v>       0.24896272       0.74862348      -0.00034193 </v>
    <v>       0.24870393       0.25029592       0.50172139 </v>
    <v>       0.24974466       0.74972872       0.50040921 </v>
    <v>       0.25264696       0.24969472       0.24982023 </v>
    <v>       0.25094780       0.00024613      -0.00065644 </v>
    <v>       0.00013658       0.25083076       0.00009630 </v>
    <v>       0.74760587       0.24706782       0.24787521 </v>
    <v>       0.74903038       0.00261321       0.00113380 </v>
    <v>       0.50247903       0.00153866       0.24997784 </v>
    <v>       0.00021753       0.49904740       0.24865374 </v>
    <v>       0.49756019       0.75119342       0.00090581 </v>
    <v>      -0.00055619       0.00013243       0.75076720 </v>
    <v>       0.74976801       0.24789014       0.75218644 </v>
    <v>       0.74841792       0.00082814       0.49896688 </v>
    <v>       0.49783678       0.24815757       0.49773248 </v>
[...]
      </set>
     </set>
    </set>
   </array>
  </eigenvalues>
  <separator name="orbital magnetization" >
   <v name="MAGDIPOLOUT">      0.00000000      0.00000000      0.00000000</v>
  </separator>
  <dos>
   <i name="efermi">      8.81411784 </i>
   <total>
    <array>
     <dimension dim="1">gridpoints</dimension>
     <dimension dim="2">spin</dimension>
     <field>energy</field>
     <field>total</field>
     <field>integrated</field>
     <set>
      <set comment="spin 1">
       <r>   -59.4970     0.0000     0.0000 </r>
       <r>   -59.2477     0.0000     0.0000 </r>
       <r>   -58.9983     0.0000     0.0000 </r>
       <r>   -58.7490     0.0000     0.0000 </r>
       <r>   -58.4996     0.0000     0.0000 </r>
       <r>   -58.2503     0.0000     0.0000 </r>
       <r>   -58.0009     0.0000     0.0000 </r>
       <r>   -57.7516     0.0000     0.0000 </r>
       <r>   -57.5022     0.0000     0.0000 </r>
       <r>   -57.2529     0.0000     0.0000 </r>
       <r>   -57.0035     0.0000     0.0000 </r>
       <r>   -56.7542     0.0000     0.0000 </r>
       <r>   -56.5048     0.0000     0.0000 </r>
       <r>   -56.2555     0.1719     0.0429 </r>
       <r>   -56.0061    32.3538     8.1102 </r>
       <r>   -55.7568    15.5924    11.9981 </r>
       <r>   -55.5074     0.0075    12.0000 </r>
       <r>   -55.2581     0.0000    12.0000 </r>
       <r>   -55.0088     0.0000    12.0000 </r>
       <r>   -54.7594     0.0000    12.0000 </r>
       <r>   -54.5101     0.0000    12.0000 </r>
       <r>   -54.2607     0.0000    12.0000 </r>
       <r>   -54.0114     0.0000    12.0000 </r>
       <r>   -53.7620     0.0000    12.0000 </r>
       <r>   -53.5127     0.0000    12.0000 </r>
       <r>   -53.2633     0.0000    12.0000 </r>
       <r>   -53.0140     0.0000    12.0000 </r>
       <r>   -52.7646     0.0000    12.0000 </r>
       <r>   -52.5153     0.0000    12.0000 </r>
       <r>   -52.2659     0.0000    12.0000 </r>
       <r>   -52.0166     0.0000    12.0000 </r>
       <r>   -51.7672     0.0000    12.0000 </r>
       <r>   -51.5179     0.0000    12.0000 </r>
       <r>   -51.2685     0.0000    12.0000 </r>
       <r>   -51.0192     0.0000    12.0000 </r>
       <r>   -50.7698     0.0000    12.0000 </r>
       <r>   -50.5205     0.0000    12.0000 </r>
       <r>   -50.2712     0.0000    12.0000 </r>
       <r>   -50.0218     0.0000    12.0000 </r>
       <r>   -49.7725     0.0000    12.0000 </r>
       <r>   -49.5231     0.0000    12.0000 </r>
       <r>   -49.2738     0.0000    12.0000 </r>
       <r>   -49.0244     0.2094    12.0522 </r>
       <r>   -48.7751     8.0030    14.0477 </r>
       <r>   -48.5257    27.8711    20.9973 </r>
       <r>   -48.2764    19.7749    25.9281 </r>
       <r>   -48.0270     0.2882    26.0000 </r>
       <r>   -47.7777     0.0000    26.0000 </r>
       <r>   -47.5283     0.0121    26.0030 </r>
       <r>   -47.2790     8.3204    28.0777 </r>
       <r>   -47.0296    21.8750    33.5322 </r>
       <r>   -46.7803    14.6525    37.1857 </r>
       <r>   -46.5309     3.2650    37.9998 </r>
       <r>   -46.2816     0.0007    38.0000 </r>
       <r>   -46.0322     0.0000    38.0000 </r>
       <r>   -45.7829     0.0000    38.0000 </r>
       <r>   -45.5336     0.0000    38.0000 </r>
       <r>   -45.2842     0.0000    38.0000 </r>
       <r>   -45.0349     0.0000    38.0000 </r>
       <r>   -44.7855     0.0000    38.0000 </r>
       <r>   -44.5362     0.0000    38.0000 </r>
       <r>   -44.2868     0.0000    38.0000 </r>
       <r>   -44.0375     0.0000    38.0000 </r>
       <r>   -43.7881     0.0000    38.0000 </r>
       <r>   -43.5388     0.0000    38.0000 </r>
       <r>   -43.2894     0.0000    38.0000 </r>
       <r>   -43.0401     0.0000    38.0000 </r>
       <r>   -42.7907     0.0000    38.0000 </r>
       <r>   -42.5414     0.0000    38.0000 </r>
       <r>   -42.2920     0.0000    38.0000 </r>
       <r>   -42.0427     0.0000    38.0000 </r>
       <r>   -41.7933     0.0000    38.0000 </r>
       <r>   -41.5440     0.0000    38.0000 </r>
       <r>   -41.2946     0.0000    38.0000 </r>
       <r>   -41.0453     0.0000    38.0000 </r>
       <r>   -40.7960     0.0000    38.0000 </r>
       <r>   -40.5466     0.0000    38.0000 </r>
       <r>   -40.2973     0.0000    38.0000 </r>
       <r>   -40.0479     0.0000    38.0000 </r>
       <r>   -39.7986     0.0000    38.0000 </r>
       <r>   -39.5492     0.0000    38.0000 </r>
       <r>   -39.2999     0.0000    38.0000 </r>
       <r>   -39.0505     0.0000    38.0000 </r>
       <r>   -38.8012     0.0000    38.0000 </r>
       <r>   -38.5518     0.0000    38.0000 </r>
       <r>   -38.3025     0.0000    38.0000 </r>
       <r>   -38.0531     0.0000    38.0000 </r>
       <r>   -37.8038     0.0000    38.0000 </r>
       <r>   -37.5544     0.0000    38.0000 </r>
       <r>   -37.3051     0.0000    38.0000 </r>
       <r>   -37.0557     0.0000    38.0000 </r>
       <r>   -36.8064     0.0000    38.0000 </r>
       <r>   -36.5570     0.0000    38.0000 </r>
       <r>   -36.3077     0.0000    38.0000 </r>
       <r>   -36.0584     0.0000    38.0000 </r>
       <r>   -35.8090     0.0000    38.0000 </r>
       <r>   -35.5597     0.0000    38.0000 </r>
       <r>   -35.3103     0.0000    38.0000 </r>
       <r>   -35.0610     0.0000    38.0000 </r>
       <r>   -34.8116     0.0000    38.0000 </r>
       <r>   -34.5623     0.0000    38.0000 </r>
       <r>   -34.3129     0.0000    38.0000 </r>
       <r>   -34.0636     0.0000    38.0000 </r>
       <r>   -33.8142     0.0000    38.0000 </r>
       <r>   -33.5649     0.0000    38.0000 </r>
       <r>   -33.3155     0.0000    38.0000 </r>
       <r>   -33.0662     0.0000    38.0000 </r>
       <r>   -32.8168     0.0000    38.0000 </r>
       <r>   -32.5675     0.0000    38.0000 </r>
       <r>   -32.3181     0.0000    38.0000 </r>
       <r>   -32.0688     0.0000    38.0000 </r>
       <r>   -31.8194     0.0000    38.0000 </r>
       <r>   -31.5701     0.0000    38.0000 </r>
       <r>   -31.3208     0.0000    38.0000 </r>
       <r>   -31.0714     0.0000    38.0000 </r>
       <r>   -30.8221     0.0000    38.0000 </r>
       <r>   -30.5727     0.0000    38.0000 </r>
       <r>   -30.3234     0.0441    38.0110 </r>
       <r>   -30.0740    32.9126    46.2177 </r>
       <r>   -29.8247   103.5179    72.0296 </r>
       <r>   -29.5753     7.9016    73.9998 </r>
       <r>   -29.3260     0.0007    74.0000 </r>
       <r>   -29.0766     0.0000    74.0000 </r>
       <r>   -28.8273     0.0000    74.0000 </r>
       <r>   -28.5779     0.0000    74.0000 </r>
       <r>   -28.3286     0.0000    74.0000 </r>
       <r>   -28.0792     0.0000    74.0000 </r>
       <r>   -27.8299     0.0000    74.0000 </r>
       <r>   -27.5805     0.0000    74.0000 </r>
       <r>   -27.3312     0.0000    74.0000 </r>
       <r>   -27.0818     0.0000    74.0000 </r>
       <r>   -26.8325     0.0000    74.0000 </r>
       <r>   -26.5832     0.0000    74.0000 </r>
       <r>   -26.3338     0.0000    74.0000 </r>
       <r>   -26.0845     0.0000    74.0000 </r>
       <r>   -25.8351     0.0000    74.0000 </r>
       <r>   -25.5858     0.0002    74.0000 </r>
       <r>   -25.3364     4.2787    75.0669 </r>
       <r>   -25.0871    34.4416    83.6549 </r>
       <r>   -24.8377    88.6786   105.7666 </r>
       <r>   -24.5884    40.3710   115.8330 </r>
       <r>   -24.3390     0.6697   116.0000 </r>
       <r>   -24.0897     0.0000   116.0000 </r>
       <r>   -23.8403     0.0074   116.0018 </r>
       <r>   -23.5910     8.0690   118.0138 </r>
       <r>   -23.3416    41.1824   128.2825 </r>
       <r>   -23.0923    59.4658   143.1102 </r>
       <r>   -22.8429    32.6829   151.2596 </r>
       <r>   -22.5936     2.9695   152.0000 </r>
       <r>   -22.3442     2.1289   152.5308 </r>
       <r>   -22.0949    28.2069   159.5642 </r>
       <r>   -21.8456    40.4978   169.6622 </r>
       <r>   -21.5962    27.4451   176.5056 </r>
       <r>   -21.3469    45.5102   187.8534 </r>
       <r>   -21.0975    12.2084   190.8975 </r>
       <r>   -20.8482    12.4324   193.9975 </r>
       <r>   -20.5988     0.0099   194.0000 </r>
       <r>   -20.3495     0.0000   194.0000 </r>
       <r>   -20.1001     0.0000   194.0000 </r>
       <r>   -19.8508     0.0000   194.0000 </r>
       <r>   -19.6014     0.0000   194.0000 </r>
       <r>   -19.3521     0.0000   194.0000 </r>
       <r>   -19.1027     0.0000   194.0000 </r>
       <r>   -18.8534     0.0000   194.0000 </r>
       <r>   -18.6040     0.0000   194.0000 </r>
       <r>   -18.3547     0.0000   194.0000 </r>
       <r>   -18.1053     0.0000   194.0000 </r>
       <r>   -17.8560     0.0000   194.0000 </r>
       <r>   -17.6066     0.0000   194.0000 </r>
       <r>   -17.3573     0.0000   194.0000 </r>
       <r>   -17.1080     0.0000   194.0000 </r>
       <r>   -16.8586     0.0000   194.0000 </r>
       <r>   -16.6093     0.0000   194.0000 </r>
       <r>   -16.3599     0.0000   194.0000 </r>
       <r>   -16.1106     0.0000   194.0000 </r>
       <r>   -15.8612     0.0000   194.0000 </r>
       <r>   -15.6119     0.0000   194.0000 </r>
       <r>   -15.3625     0.0000   194.0000 </r>
       <r>   -15.1132     0.0000   194.0000 </r>
       <r>   -14.8638     0.0000   194.0000 </r>
       <r>   -14.6145     0.0000   194.0000 </r>
       <r>   -14.3651     0.0000   194.0000 </r>
       <r>   -14.1158     0.0000   194.0000 </r>
       <r>   -13.8664     0.0000   194.0000 </r>
       <r>   -13.6171     0.0000   194.0000 </r>
       <r>   -13.3677     0.0000   194.0000 </r>
       <r>   -13.1184     0.0000   194.0000 </r>
       <r>   -12.8691     0.0000   194.0000 </r>
       <r>   -12.6197     0.0000   194.0000 </r>
       <r>   -12.3704     0.0000   194.0000 </r>
       <r>   -12.1210     0.0000   194.0000 </r>
       <r>   -11.8717     0.0000   194.0000 </r>
       <r>   -11.6223     0.0000   194.0000 </r>
       <r>   -11.3730     0.0000   194.0000 </r>
       <r>   -11.1236     0.0000   194.0000 </r>
       <r>   -10.8743     0.0000   194.0000 </r>
       <r>   -10.6249     0.0000   194.0000 </r>
       <r>   -10.3756     0.0000   194.0000 </r>
       <r>   -10.1262     0.0000   194.0000 </r>
       <r>    -9.8769     0.0000   194.0000 </r>
       <r>    -9.6275     0.0000   194.0000 </r>
       <r>    -9.3782     0.0000   194.0000 </r>
       <r>    -9.1288     0.0000   194.0000 </r>
       <r>    -8.8795     0.0000   194.0000 </r>
       <r>    -8.6301     0.0000   194.0000 </r>
       <r>    -8.3808     0.0000   194.0000 </r>
       <r>    -8.1315     0.0000   194.0000 </r>
       <r>    -7.8821     0.0000   194.0000 </r>
       <r>    -7.6328     0.0036   194.0009 </r>
       <r>    -7.3834     1.5023   194.3755 </r>
       <r>    -7.1341     6.1434   195.9073 </r>
       <r>    -6.8847     9.9334   198.3842 </r>
       <r>    -6.6354    10.5290   201.0096 </r>
       <r>    -6.3860    13.6141   204.4042 </r>
       <r>    -6.1367    29.1868   211.6819 </r>
       <r>    -5.8873    23.7950   217.6151 </r>
       <r>    -5.6380     9.5478   219.9958 </r>
       <r>    -5.3886     0.0168   220.0000 </r>
       <r>    -5.1393     0.0000   220.0000 </r>
       <r>    -4.8899     0.0000   220.0000 </r>
       <r>    -4.6406     0.0000   220.0000 </r>
       <r>    -4.3912     0.0000   220.0000 </r>
       <r>    -4.1419     0.0000   220.0000 </r>
       <r>    -3.8925     0.0318   220.0079 </r>
       <r>    -3.6432     3.3923   220.8538 </r>
       <r>    -3.3939     4.7595   222.0406 </r>
       <r>    -3.1445     7.4417   223.8961 </r>
       <r>    -2.8952    11.0917   226.6618 </r>
       <r>    -2.6458    17.4365   231.0096 </r>
       <r>    -2.3965    23.9352   236.9777 </r>
       <r>    -2.1471    27.4709   243.8275 </r>
       <r>    -1.8978    24.2575   249.8761 </r>
       <r>    -1.6484    19.4640   254.7294 </r>
       <r>    -1.3991     9.8643   257.1890 </r>
       <r>    -1.1497     3.1989   257.9867 </r>
       <r>    -0.9004     0.0534   258.0000 </r>
       <r>    -0.6510     0.0000   258.0000 </r>
       <r>    -0.4017     0.0000   258.0000 </r>
       <r>    -0.1523     0.0000   258.0000 </r>
       <r>     0.0970     0.0000   258.0000 </r>
       <r>     0.3464     0.0000   258.0000 </r>
       <r>     0.5957     0.0000   258.0000 </r>
       <r>     0.8451     0.0054   258.0014 </r>
       <r>     1.0944     0.8501   258.2133 </r>
       <r>     1.3437     3.7865   259.1575 </r>
       <r>     1.5931    10.5969   261.7998 </r>
       <r>     1.8424    12.9695   265.0337 </r>
       <r>     2.0918    17.1989   269.3222 </r>
       <r>     2.3411    27.6674   276.2210 </r>
       <r>     2.5905    31.0348   283.9594 </r>
       <r>     2.8398    28.4778   291.0603 </r>
       <r>     3.0892    33.1973   299.3380 </r>
       <r>     3.3385    33.2004   307.6164 </r>
       <r>     3.5879    41.7826   318.0348 </r>
       <r>     3.8372    51.3285   330.8334 </r>
       <r>     4.0866    55.0443   344.5585 </r>
       <r>     4.3359    61.9695   360.0105 </r>
       <r>     4.5853    62.8227   375.6751 </r>
       <r>     4.8346    59.3265   390.4680 </r>
       <r>     5.0840    55.2739   404.2504 </r>
       <r>     5.3333    45.1829   415.5167 </r>
       <r>     5.5827    40.5950   425.6389 </r>
       <r>     5.8320    28.9857   432.8664 </r>
       <r>     6.0813    27.7148   439.7770 </r>
       <r>     6.3307    16.5727   443.9094 </r>
       <r>     6.5800    17.1998   448.1981 </r>
       <r>     6.8294     8.5575   450.3319 </r>
       <r>     7.0787     8.8153   452.5300 </r>
       <r>     7.3281    19.9301   457.4995 </r>
       <r>     7.5774    15.5743   461.3829 </r>
       <r>     7.8268    17.4631   465.7373 </r>
       <r>     8.0761    18.6216   470.3805 </r>
       <r>     8.3255    19.2256   475.1744 </r>
       <r>     8.5748    22.0132   480.6633 </r>
       <r>     8.8242    26.4752   487.2649 </r>
       <r>     9.0735    25.6198   493.6531 </r>
       <r>     9.3229    36.0347   502.6383 </r>
       <r>     9.5722    44.3688   513.7015 </r>
       <r>     9.8216    45.7729   525.1148 </r>
       <r>    10.0709    50.2113   537.6349 </r>
       <r>    10.3203    56.2991   551.6729 </r>
       <r>    10.5696    58.5699   566.2772 </r>
       <r>    10.8189    60.6858   581.4090 </r>
       <r>    11.0683    55.1278   595.1550 </r>
       <r>    11.3176    50.2668   607.6889 </r>
       <r>    11.5670    40.4258   617.7689 </r>
       <r>    11.8163    20.6873   622.9272 </r>
       <r>    12.0657     4.2894   623.9968 </r>
       <r>    12.3150     0.0129   624.0000 </r>
       <r>    12.5644     0.0000   624.0000 </r>
       <r>    12.8137     0.0000   624.0000 </r>
       <r>    13.0631     0.0000   624.0000 </r>
       <r>    13.3124     0.0000   624.0000 </r>
       <r>    13.5618     0.0000   624.0000 </r>
       <r>    13.8111     0.0000   624.0000 </r>
       <r>    14.0605     0.0000   624.0000 </r>
       <r>    14.3098     0.0000   624.0000 </r>
       <r>    14.5592     0.0000   624.0000 </r>
       <r>    14.8085     0.0000   624.0000 </r>
       <r>    15.0579     0.0000   624.0000 </r>
       <r>    15.3072     0.0000   624.0000 </r>
      </set>
     </set>
    </array>
   </total>
  </dos>
 </calculation>
 <structure name="finalpos" >
  <crystal>
   <varray name="basis" >
    <v>       8.79426191       0.00042324       0.01635971 </v>
    <v>       0.00050654       8.85481302      -0.00509335 </v>
    <v>       0.01634302      -0.00500868       8.76371379 </v>
   </varray>
   <i name="volume">    682.44133766 </i>
   <varray name="rec_basis" >
    <v>       0.11371090      -0.00000663      -0.00021206 </v>
    <v>      -0.00000556       0.11293297       0.00006455 </v>
    <v>      -0.00021227       0.00006565       0.11410731 </v>
   </varray>
  </crystal>
  <varray name="positions" >
   <v>      -0.01010800      -0.00745589       0.00361909 </v>
   <v>       0.24601785      -0.00488160       0.25564346 </v>
   <v>       0.25813445       0.50681737       0.25037283 </v>
   <v>       0.49919242       0.49959176      -0.00115572 </v>
   <v>       0.49371718       0.25209681       0.74753991 </v>
   <v>      -0.00134792       0.50102233       0.48723952 </v>
   <v>       0.50401963       0.74739214       0.74585026 </v>
   <v>      -0.00624582       0.22985544       0.26511308 </v>
   <v>       0.76045695       0.74280643      -0.00609767 </v>
   <v>       0.01507336       0.27806445       0.74637959 </v>
   <v>       0.76050874       0.27471720       0.49443101 </v>
   <v>      -0.01202841       0.73107641       0.74904616 </v>
   <v>       0.26410480       0.49865493       0.74997321 </v>
   <v>       0.24448792       0.24835231       0.00179097 </v>
   <v>       0.50398825       0.25483224       0.25325875 </v>
   <v>       0.75249975      -0.00470265       0.25923441 </v>
   <v>       0.75547910       0.25883680      -0.01100014 </v>
   <v>       0.24787676       0.75139747       0.00024856 </v>
   <v>       0.24990747       0.25243581       0.50107535 </v>
   <v>       0.24323447       0.74760351       0.50183746 </v>
   <v>       0.25017820       0.24578687       0.25221279 </v>
   <v>       0.25042225      -0.00001146       0.00525486 </v>
   <v>      -0.00011773       0.24291948       0.00359492 </v>
   <v>       0.75190271       0.25319431       0.24927355 </v>
   <v>       0.75537958       0.00333440       0.00241117 </v>
   <v>       0.49861412       0.00069952       0.24920245 </v>
   <v>      -0.00122304       0.49337437       0.25179176 </v>
   <v>       0.49959746       0.75046504      -0.00377017 </v>
   <v>      -0.00213964       0.00113617       0.75004369 </v>
   <v>       0.74996684       0.24720813       0.74287710 </v>
   <v>       0.75176134      -0.00061069       0.50387649 </v>
   <v>       0.50447847       0.24836247       0.50463253 </v>
   <v>       0.50012828      -0.00122286       0.74854977 </v>
   <v>       0.00353451      -0.00743648       0.25328862 </v>
   <v>       0.50226496       0.25011859      -0.00480263 </v>
   <v>       0.24703517       0.75094493       0.25086149 </v>
   <v>       0.25073906       0.49979409       0.00538702 </v>
   <v>      -0.00231484       0.75241530       0.00648677 </v>
   <v>       0.75624617       0.74043961       0.25269173 </v>
   <v>       0.74699632       0.50587025      -0.00158502 </v>
   <v>       0.50277109       0.50279419       0.25191601 </v>
   <v>       0.25506450       0.24979302       0.75090765 </v>
   <v>       0.24440119      -0.00057079       0.49654082 </v>
   <v>      -0.00352917       0.24946033       0.50682106 </v>
   <v>       0.24888912       0.75063689       0.75079220 </v>
   <v>       0.25342206       0.50046606       0.49643604 </v>
   <v>      -0.01054367       0.75159358       0.49664969 </v>
   <v>      -0.00536692       0.50244994       0.74622282 </v>
   <v>       0.74267975       0.74186818       0.74085572 </v>
   <v>       0.74943035       0.50521346       0.49926497 </v>
   <v>       0.50521750       0.74396346       0.50274853 </v>
   <v>       0.50425947       0.50059639       0.74627251 </v>
   <v>       0.51177403       0.00660380      -0.00886815 </v>
   <v>      -0.00288470       0.50777849       0.01015934 </v>
   <v>       0.50459319       0.74449918       0.25379852 </v>
   <v>       0.23693102      -0.00193730       0.74453800 </v>
   <v>       0.49127270      -0.01238847       0.50599873 </v>
   <v>       0.75662042      -0.01623848       0.74812647 </v>
   <v>      -0.00094727       0.77051882       0.25741354 </v>
   <v>       0.73586309       0.50788777       0.25385667 </v>
   <v>       0.01041357      -0.00037548       0.49319419 </v>
   <v>       0.49937420       0.51593289       0.49821808 </v>
   <v>       0.73011405       0.51755549       0.74686731 </v>
   <v>       0.75776195       0.72660394       0.49459099 </v>
  </varray>
 </structure>
</modeling>
