HECN                                    
           1
    11.240000    0.000000    0.000000
     0.000000   11.240000    0.000000
     0.000000    0.000000   11.240000
   Ti   Mo   Hf   N    C    Nb   V 
   7   6   7  13  19   6   6
Direct configuration=     1
   0.00000000  0.00000000  0.00000000
   0.25000000  0.00000000  0.25000000
   0.25000000  0.50000000  0.25000000
   0.50000000  0.50000000  0.00000000
   0.50000000  0.25000000  0.75000004
   0.00000000  0.50000000  0.50000000
   0.50000000  0.75000004  0.75000004
   0.00000000  0.25000000  0.25000000
   0.75000004  0.75000004  0.00000000
   0.00000000  0.25000000  0.75000004
   0.75000004  0.25000000  0.50000000
   0.00000000  0.75000004  0.75000004
   0.25000000  0.50000000  0.75000004
   0.25000000  0.25000000  0.00000000
   0.50000000  0.25000000  0.25000000
   0.75000004  0.00000000  0.25000000
   0.75000004  0.25000000  0.00000000
   0.25000000  0.75000004  0.00000000
   0.25000000  0.25000000  0.50000000
   0.25000000  0.75000004  0.50000000
   0.25000000  0.25000000  0.25000000
   0.25000000  0.00000000  0.00000000
   0.00000000  0.25000000  0.00000000
   0.75000004  0.25000000  0.25000000
   0.75000004  0.00000000  0.00000000
   0.50000000  0.00000000  0.25000000
   0.00000000  0.50000000  0.25000000
   0.50000000  0.75000004  0.00000000
   0.00000000  0.00000000  0.75000004
   0.75000004  0.25000000  0.75000004
   0.75000004  0.00000000  0.50000000
   0.50000000  0.25000000  0.50000000
   0.50000000  0.00000000  0.75000004
   0.00000000  0.00000000  0.25000000
   0.50000000  0.25000000  0.00000000
   0.25000000  0.75000004  0.25000000
   0.25000000  0.50000000  0.00000000
   0.00000000  0.75000004  0.00000000
   0.75000004  0.75000004  0.25000000
   0.75000004  0.50000000  0.00000000
   0.50000000  0.50000000  0.25000000
   0.25000000  0.25000000  0.75000004
   0.25000000  0.00000000  0.50000000
   0.00000000  0.25000000  0.50000000
   0.25000000  0.75000004  0.75000004
   0.25000000  0.50000000  0.50000000
   0.00000000  0.75000004  0.50000000
   0.00000000  0.50000000  0.75000004
   0.75000004  0.75000004  0.75000004
   0.75000004  0.50000000  0.50000000
   0.50000000  0.75000004  0.50000000
   0.50000000  0.50000000  0.75000004
   0.50000000  0.00000000  0.00000000
   0.00000000  0.50000000  0.00000000
   0.50000000  0.75000004  0.25000000
   0.25000000  0.00000000  0.75000004
   0.50000000  0.00000000  0.50000000
   0.75000004  0.00000000  0.75000004
   0.00000000  0.75000004  0.25000000
   0.75000004  0.50000000  0.25000000
   0.00000000  0.00000000  0.50000000
   0.50000000  0.50000000  0.50000000
   0.75000004  0.50000000  0.75000004
   0.75000004  0.75000004  0.50000000
HECN                                    
           1
     8.140152    0.000607    0.001694
     0.000607    8.146351    0.002463
     0.001694    0.002463    8.146498
   Ti   Mo   Hf   N    C    Nb   V 
   7   6   7  13  19   6   6
Direct configuration=     2
  -0.00035121 -0.00152747  0.00086311
   0.24807819 -0.00156644  0.25166676
   0.25054768  0.50157911  0.25019713
   0.50025447  0.49945987 -0.00022389
   0.49898282  0.25134398  0.75059777
  -0.00024253  0.49998259  0.50084351
   0.50016626  0.74869689  0.74870067
  -0.00055467  0.24776168  0.25230737
   0.75267028  0.74749159 -0.00027666
   0.00206999  0.25206777  0.74743786
   0.75277863  0.25208837  0.50091629
  -0.00053925  0.74799302  0.74974453
   0.25004672  0.50011295  0.74993450
   0.24985336  0.25138603 -0.00178914
   0.50045982  0.25180501  0.24968128
   0.75196303 -0.00142092  0.25080242
   0.74982105  0.25172002 -0.00073552
   0.24896272  0.74862348 -0.00034193
   0.24870393  0.25029592  0.50172139
   0.24974466  0.74972872  0.50040921
   0.25264696  0.24969472  0.24982023
   0.25094780  0.00024613 -0.00065644
   0.00013658  0.25083076  0.00009630
   0.74760587  0.24706782  0.24787521
   0.74903038  0.00261321  0.00113380
   0.50247903  0.00153866  0.24997784
   0.00021753  0.49904740  0.24865374
   0.49756019  0.75119342  0.00090581
  -0.00055619  0.00013243  0.75076720
   0.74976801  0.24789014  0.75218644
   0.74841792  0.00082814  0.49896688
   0.49783678  0.24815757  0.49773248
   0.50044990  0.00011399  0.74994462
  -0.00200081  0.00143835  0.24957446
   0.50014888  0.24809707  0.00192678
   0.25204960  0.75027104  0.24960213
   0.24831404  0.49970759 -0.00019142
   0.00059296  0.74854168 -0.00105769
   0.74807869  0.75199071  0.24895103
   0.75168257  0.49895206  0.00010163
   0.50007343  0.49963830  0.24986635
   0.24937958  0.24891155  0.75022834
   0.25182863  0.00037064  0.50123083
   0.00021978  0.25017753  0.50005088
   0.24959685  0.75112722  0.75029833
   0.24957287  0.49966638  0.50033137
   0.00153409  0.74981107  0.50122579
   0.00056569  0.49994758  0.75152744
   0.75070760  0.75202895  0.75104372
   0.75034073  0.49859353  0.49992854
   0.49842457  0.75188971  0.49865108
   0.49928842  0.49992119  0.75007955
   0.50073549  0.00117715 -0.00070301
  -0.00048742  0.50210484 -0.00154120
   0.50073060  0.74774805  0.25171536
   0.24943064 -0.00023137  0.74773747
   0.49868983 -0.00216400  0.50064633
   0.75071765 -0.00213364  0.74928442
  -0.00049367  0.75143425  0.25025399
   0.74905002  0.50210128  0.25019792
   0.00094458  0.00017382  0.49901228
   0.50024116  0.50163565  0.50024306
   0.74976831  0.50173276  0.74982480
   0.75031862  0.74836319  0.50009934
HECN                                    
           1
     8.864570    0.000465    0.001298
     0.000465    8.869320    0.001887
     0.001298    0.001887    8.869433
   Ti   Mo   Hf   N    C    Nb   V 
   7   6   7  13  19   6   6
Direct configuration=     3
  -0.00023785 -0.00103488  0.00058464
   0.24869841 -0.00106124  0.25112905
   0.25037100  0.50106997  0.25013376
   0.50017233  0.49963402 -0.00015173
   0.49931113  0.25091066  0.75040510
  -0.00016422  0.49998828  0.50057151
   0.50011249  0.74911696  0.74911952
  -0.00037559  0.24848362  0.25156313
   0.75180855  0.74830046 -0.00018752
   0.00140191  0.25140083  0.74826434
   0.75188213  0.25141515  0.50062123
  -0.00036531  0.74864013  0.74982669
   0.25003164  0.50007652  0.74995565
   0.24990059  0.25093894 -0.00121213
   0.50031146  0.25122298  0.24978425
   0.75132961 -0.00096263  0.25054368
   0.74987880  0.25116534 -0.00049820
   0.24929738  0.74906728 -0.00023188
   0.24912228  0.25020064  0.50116629
   0.24982708  0.74981624  0.50027722
   0.25179280  0.24979320  0.24987834
   0.25064192  0.00016672 -0.00044470
   0.00009254  0.25056290  0.00006534
   0.74837822  0.24801301  0.24855987
   0.74934342  0.00177069  0.00076841
   0.50167911  0.00104259  0.24998530
   0.00014722  0.49935444  0.24908775
   0.49834758  0.75080865  0.00061369
  -0.00037666  0.00008979  0.75051982
   0.74984298  0.24857066  0.75148125
   0.74892840  0.00056097  0.49929997
   0.49853463  0.24875138  0.49846328
   0.50030472  0.00007724  0.74996253
  -0.00135517  0.00097447  0.24971167
   0.50010092  0.24871085  0.00130534
   0.25138820  0.75018367  0.24973058
   0.24885806  0.49980181 -0.00012984
   0.00040151  0.74901183 -0.00071675
   0.74869866  0.75134869  0.24928932
   0.75113962  0.49929001  0.00006887
   0.50004972  0.49975492  0.24990941
   0.24957977  0.24926252  0.75015458
   0.25123865  0.00025129  0.50083413
   0.00014887  0.25012030  0.50003451
   0.24972699  0.75076379  0.75020223
   0.24971071  0.49977398  0.50022447
   0.00103914  0.74987216  0.50083064
   0.00038325  0.49996464  0.75103499
   0.75047940  0.75137486  0.75070744
   0.75023075  0.49904704  0.49995147
   0.49893290  0.75128023  0.49908610
   0.49951804  0.49994659  0.75005386
   0.50049813  0.00079754 -0.00047617
  -0.00033019  0.50142599 -0.00104409
   0.50049491  0.74847437  0.25116210
   0.24961421 -0.00015700  0.74846694
   0.49911260 -0.00146621  0.50043763
   0.75048598 -0.00144572  0.74951500
  -0.00033432  0.75097181  0.25017220
   0.74935665  0.50142374  0.25013424
   0.00063971  0.00011770  0.49933084
   0.50016340  0.50110828  0.50016487
   0.74984311  0.50117402  0.74988146
   0.75021579  0.74889100  0.50006717
HECN                                    
           1
     8.806270    0.000476    0.001330
     0.000476    8.811137    0.001934
     0.001330    0.001934    8.811252
   Ti   Mo   Hf   N    C    Nb   V 
   7   6   7  13  19   6   6
Direct configuration=     4
  -0.00024623 -0.00107129  0.00060522
   0.24865257 -0.00109858  0.25116879
   0.25038406  0.50110760  0.25013845
   0.50017840  0.49962114 -0.00015707
   0.49928687  0.25094269  0.75041934
  -0.00017000  0.49998786  0.50059162
   0.50011646  0.74908590  0.74908856
  -0.00038882  0.24843026  0.25161814
   0.75187223  0.74824067 -0.00019411
   0.00145128  0.25145012  0.74820326
   0.75194838  0.25146491  0.50064305
  -0.00037816  0.74859229  0.74982061
   0.25003276  0.50007922  0.74995409
   0.24989710  0.25097198 -0.00125478
   0.50032243  0.25126600  0.24977664
   0.75137642 -0.00099650  0.25056281
   0.74987453  0.25120634 -0.00051574
   0.24927265  0.74903448 -0.00024002
   0.24909136  0.25020769  0.50120732
   0.24982099  0.74980977  0.50028698
   0.25185592  0.24978592  0.24987405
   0.25066452  0.00017259 -0.00046035
   0.00009579  0.25058270  0.00006763
   0.74832114  0.24794314  0.24850925
   0.74932029  0.00183297  0.00079542
   0.50173823  0.00107926  0.24998475
   0.00015242  0.49933174  0.24905566
   0.49828939  0.75083709  0.00063529
  -0.00038992  0.00009294  0.75053810
   0.74983744  0.24852036  0.75153337
   0.74889067  0.00058072  0.49927535
   0.49848305  0.24870748  0.49840926
   0.50031545  0.00007996  0.74996121
  -0.00140288  0.00100876  0.24970153
   0.50010447  0.24866548  0.00135127
   0.25143708  0.75019013  0.24972109
   0.24881785  0.49979485 -0.00013439
   0.00041566  0.74897707 -0.00074196
   0.74865284  0.75139614  0.24926432
   0.75117974  0.49926503  0.00007129
   0.50005147  0.49974630  0.24990623
   0.24956498  0.24923658  0.75016003
   0.25128225  0.00026012  0.50086345
   0.00015411  0.25012453  0.50003572
   0.24971737  0.75079065  0.75020934
   0.24970052  0.49976602  0.50023237
   0.00107572  0.74986765  0.50085985
   0.00039673  0.49996339  0.75107139
   0.75049627  0.75142322  0.75073231
   0.75023888  0.49901352  0.49994977
   0.49889533  0.75132528  0.49905395
   0.49950107  0.49994472  0.75005576
   0.50051567  0.00082560 -0.00049294
  -0.00034181  0.50147616 -0.00108083
   0.50051233  0.74842069  0.25120299
   0.24960064 -0.00016251  0.74841302
   0.49908136 -0.00151778  0.50045305
   0.75050310 -0.00149657  0.74949796
  -0.00034610  0.75100600  0.25017825
   0.74933399  0.50147382  0.25013895
   0.00066224  0.00012185  0.49930729
   0.50016915  0.50114726  0.50017065
   0.74983759  0.50121533  0.74987727
   0.75022339  0.74885198  0.50006954
HECN                                    
           1
     8.785371    0.000480    0.001341
     0.000480    8.790279    0.001950
     0.001341    0.001950    8.790396
   Ti   Mo   Hf   N    C    Nb   V 
   7   6   7  13  19   6   6
Direct configuration=     5
  -0.00024925 -0.00108442  0.00061264
   0.24863603 -0.00111206  0.25118313
   0.25038877  0.50112118  0.25014014
   0.50018059  0.49961650 -0.00015899
   0.49927811  0.25095425  0.75042448
  -0.00017209  0.49998771  0.50059887
   0.50011789  0.74907470  0.74907739
  -0.00039359  0.24841101  0.25163799
   0.75189521  0.74821909 -0.00019649
   0.00146909  0.25146791  0.74818122
   0.75197229  0.25148287  0.50065092
  -0.00038280  0.74857503  0.74981842
   0.25003316  0.50008019  0.74995352
   0.24989584  0.25098390 -0.00127017
   0.50032638  0.25128152  0.24977390
   0.75139332 -0.00100873  0.25056971
   0.74987299  0.25122113 -0.00052207
   0.24926372  0.74902264 -0.00024296
   0.24908021  0.25021023  0.50122213
   0.24981879  0.74980743  0.50029050
   0.25187870  0.24978330  0.24987250
   0.25067268  0.00017471 -0.00046599
   0.00009697  0.25058984  0.00006845
   0.74830054  0.24791792  0.24849099
   0.74931194  0.00185544  0.00080517
   0.50175956  0.00109249  0.24998456
   0.00015429  0.49932355  0.24904409
   0.49826839  0.75084736  0.00064308
  -0.00039471  0.00009408  0.75054470
   0.74983544  0.24850221  0.75155218
   0.74887706  0.00058784  0.49926646
   0.49846444  0.24869164  0.49838976
   0.50031932  0.00008094  0.74996073
  -0.00142010  0.00102113  0.24969787
   0.50010575  0.24864911  0.00136785
   0.25145471  0.75019246  0.24971767
   0.24880335  0.49979233 -0.00013604
   0.00042076  0.74896453 -0.00075105
   0.74863631  0.75141326  0.24925529
   0.75119422  0.49925602  0.00007217
   0.50005210  0.49974319  0.24990508
   0.24955964  0.24922722  0.75016200
   0.25129798  0.00026330  0.50087404
   0.00015600  0.25012605  0.50003616
   0.24971390  0.75080034  0.75021190
   0.24969685  0.49976315  0.50023522
   0.00108892  0.74986602  0.50087039
   0.00040160  0.49996293  0.75108452
   0.75050235  0.75144066  0.75074128
   0.75024181  0.49900142  0.49994916
   0.49888178  0.75134154  0.49904235
   0.49949495  0.49994404  0.75005644
   0.50052200  0.00083572 -0.00049898
  -0.00034600  0.50149427 -0.00109409
   0.50051861  0.74840132  0.25121774
   0.24959574 -0.00016449  0.74839356
   0.49907008 -0.00153640  0.50045861
   0.75050928 -0.00151492  0.74949180
  -0.00035034  0.75101833  0.25018043
   0.74932581  0.50149189  0.25014065
   0.00067037  0.00012334  0.49929880
   0.50017122  0.50116133  0.50017274
   0.74983559  0.50123023  0.74987576
   0.75022613  0.74883791  0.50007040
HECN                                    
           1
     8.757933    0.008664   -0.001122
     0.008667    8.795213    0.002650
    -0.001120    0.002661    8.752193
   Ti   Mo   Hf   N    C    Nb   V 
   7   6   7  13  19   6   6
Direct configuration=     6
  -0.00137029 -0.00318361  0.00264490
   0.24379305 -0.00215678  0.25292486
   0.25082240  0.50306108  0.25077912
   0.50169342  0.49919942 -0.00130860
   0.49855505  0.25377145  0.75023765
  -0.00209050  0.50038871  0.49979923
   0.50258222  0.74570457  0.74662607
  -0.00160784  0.24216788  0.25604399
   0.75706001  0.74315052 -0.00078540
   0.00449685  0.25503975  0.74384418
   0.75686571  0.25660889  0.50281883
  -0.00348461  0.74513305  0.74861419
   0.25310744  0.49986441  0.74946142
   0.24557557  0.24935196 -0.00066754
   0.50041862  0.25493607  0.25201529
   0.75645023 -0.00334018  0.25339685
   0.75285192  0.25405780 -0.00311815
   0.24861730  0.75010093  0.00009746
   0.24816576  0.25184828  0.50060798
   0.24773256  0.74811335  0.50005291
   0.25133233  0.24928225  0.25039465
   0.24733106  0.00007929  0.00310986
   0.00064719  0.24786511  0.00042188
   0.74907742  0.25232818  0.25009119
   0.75296239  0.00152920  0.00015745
   0.49889412  0.00053805  0.25021524
  -0.00147869  0.50224750  0.25199160
   0.49888261  0.74753626 -0.00284158
  -0.00133238 -0.00004070  0.75014079
   0.74608459  0.25180272  0.74971023
   0.75294105 -0.00315063  0.50045330
   0.49979169  0.25210225  0.50290602
   0.50094140 -0.00000704  0.74932195
   0.00416342 -0.00238034  0.25122182
   0.50046181  0.25080925 -0.00396278
   0.24806172  0.75063268  0.24984897
   0.25019216  0.49981663  0.00273005
  -0.00348132  0.75164223  0.00261220
   0.75272097  0.74356925  0.25258968
   0.74879036  0.50386058  0.00025125
   0.50278452  0.50290245  0.25192564
   0.25174609  0.24954976  0.74952866
   0.24705503  0.00019245  0.49745216
  -0.00428706  0.24932429  0.50029495
   0.25185659  0.75046370  0.74974481
   0.24993001  0.49967976  0.49805150
  -0.00621023  0.75150208  0.49816106
  -0.00432148  0.50022085  0.74745466
   0.74766068  0.74676723  0.74704052
   0.74932393  0.50211339  0.49994190
   0.50594674  0.74670389  0.50290030
   0.50405543  0.50003057  0.74787077
   0.50256183  0.00300618 -0.00297318
  -0.00269358  0.50411367 -0.00102041
   0.50329758  0.74368517  0.25371775
   0.24718110 -0.00014404  0.74643294
   0.49838087 -0.00558408  0.50260421
   0.75272499 -0.00473550  0.74708599
  -0.00221387  0.75593591  0.25104094
   0.74673029  0.50586403  0.25091255
   0.00169045  0.00086324  0.49650530
   0.50184838  0.50464070  0.50075889
   0.74666412  0.50504889  0.74903423
   0.75106949  0.74397580  0.50008551
HECN                                    
           1
     8.743850    0.012865   -0.002386
     0.012868    8.797746    0.003009
    -0.002383    0.003026    8.732585
   Ti   Mo   Hf   N    C    Nb   V 
   7   6   7  13  19   6   6
Direct configuration=     7
  -0.00194619 -0.00426002  0.00369249
   0.24130021 -0.00269046  0.25382210
   0.25104483  0.50405599  0.25110850
   0.50247240  0.49898478 -0.00190101
   0.49818137  0.25521701  0.75014112
  -0.00307858  0.50059538  0.49938670
   0.50385234  0.74397465  0.74536286
  -0.00222940  0.23896561  0.25831546
   0.75972166  0.74054794 -0.00108804
   0.00605347  0.25687080  0.74160864
   0.75938313  0.25923605  0.50393693
  -0.00508022  0.74336888  0.74799308
   0.25469038  0.49975226  0.74920819
   0.24335199  0.24851684 -0.00035743
   0.50046469  0.25681068  0.25317064
   0.75905550 -0.00453873  0.25485513
   0.75438401  0.25551167 -0.00445616
   0.24828399  0.75065438  0.00027282
   0.24769405  0.25268905  0.50029118
   0.24665917  0.74724530  0.49993019
   0.25105133  0.24902545  0.25066377
   0.24561107  0.00003178  0.00495280
   0.00093184  0.24646707  0.00060428
   0.74947554  0.25459017  0.25091606
   0.75484203  0.00136012 -0.00017592
   0.49741904  0.00025498  0.25033378
  -0.00232047  0.50374813  0.25351074
   0.49919995  0.74583755 -0.00463776
  -0.00181516 -0.00010937  0.74993244
   0.74415148  0.25349773  0.74876000
   0.75503551 -0.00507044  0.50106588
   0.50047410  0.25385104  0.50523430
   0.50126165 -0.00005244  0.74899273
   0.00704015 -0.00412801  0.25200840
   0.50064333  0.25191743 -0.00671086
   0.24631451  0.75086013  0.24991615
   0.25090765  0.49982831  0.00420777
  -0.00549126  0.75301760  0.00434534
   0.75482835  0.73954323  0.25430953
   0.74755046  0.50622383  0.00034304
   0.50419018  0.50452174  0.25296755
   0.25287162  0.24971420  0.74920246
   0.24486992  0.00015828  0.49568750
  -0.00657432  0.24891510  0.50042775
   0.25295992  0.75028999  0.74950434
   0.25004979  0.49963696  0.49692578
  -0.00996965  0.75234498  0.49676322
  -0.00675399  0.50035558  0.74558271
   0.74619924  0.74437132  0.74513248
   0.74884984  0.50371025  0.49993790
   0.50958719  0.74432126  0.50489036
   0.50640321  0.50007287  0.74674467
   0.50361071  0.00411874 -0.00424847
  -0.00390356  0.50545852 -0.00098288
   0.50473106  0.74126439  0.25500715
   0.24593754 -0.00013230  0.74542185
   0.49802826 -0.00766027  0.50371037
   0.75386703 -0.00638860  0.74584619
  -0.00317562  0.75845944  0.25148408
   0.74539191  0.50810811  0.25130993
   0.00221491  0.00124243  0.49506531
   0.50271034  0.50642476  0.50106116
   0.74502922  0.50700939  0.74859978
   0.75150605  0.74148118  0.50009362
HECN                                    
           1
     8.826240    0.001167    0.003596
     0.001143    8.850658    0.002267
     0.003589    0.002273    8.815172
   Ti   Mo   Hf   N    C    Nb   V 
   7   6   7  13  19   6   6
Direct configuration=     8
  -0.00345461 -0.00603322  0.00535896
   0.24125726 -0.00361625  0.25550442
   0.25161655  0.50624426  0.25083608
   0.50131035  0.49902821 -0.00301860
   0.49594224  0.25741870  0.74932687
  -0.00457211  0.50129171  0.49728799
   0.50559873  0.74179193  0.74519102
  -0.00406027  0.23368985  0.26107393
   0.75995916  0.73927845 -0.00102510
   0.00882093  0.26228731  0.73986147
   0.75937500  0.26378546  0.50521050
  -0.00879359  0.73953678  0.74842871
   0.25787001  0.49902900  0.74946547
   0.24398824  0.24909391  0.00063625
   0.50296237  0.25652752  0.25297929
   0.75708071 -0.00530320  0.25608696
   0.75546601  0.25753004 -0.00568392
   0.24750361  0.75044953 -0.00049310
   0.24696968  0.25222063  0.49971468
   0.24597046  0.74778994  0.50061734
   0.25049899  0.24889560  0.25126281
   0.24516609 -0.00032264  0.00638277
  -0.00055576  0.24530612  0.00102188
   0.75039062  0.25517056  0.25192023
   0.75584966  0.00167081  0.00050531
   0.49837118  0.00051747  0.24957547
  -0.00335113  0.50313817  0.25384997
   0.49999277  0.74609732 -0.00528156
  -0.00210489  0.00043283  0.74980557
   0.74334185  0.25433041  0.74716443
   0.75636322 -0.00637246  0.50146607
   0.50162696  0.25412628  0.50660302
   0.50146672 -0.00029940  0.74900086
   0.00665348 -0.00716314  0.25291724
   0.50105864  0.25184390 -0.00623403
   0.24553445  0.75042945  0.25052272
   0.25062158  0.49978072  0.00505189
  -0.00331038  0.75372962  0.00519634
   0.75669581  0.73855934  0.25502720
   0.74679010  0.50509047  0.00027891
   0.50496720  0.50336038  0.25354020
   0.25397899  0.24999358  0.74909521
   0.24381285 -0.00046812  0.49505346
  -0.00424574  0.24905797  0.50079028
   0.25287341  0.74998850  0.74918658
   0.24987638  0.50034869  0.49621948
  -0.01159735  0.75317163  0.49610502
  -0.00807364  0.49955618  0.74469206
   0.74524467  0.74248683  0.74424682
   0.74869352  0.50447450  0.49969649
   0.50891479  0.74238492  0.50489168
   0.50741034  0.49999095  0.74608228
   0.50564905  0.00652751 -0.00623187
  -0.00344607  0.50811849 -0.00023318
   0.50698709  0.74283974  0.25574859
   0.24363979 -0.00070745  0.74372014
   0.49664335 -0.01086902  0.50467993
   0.75537021 -0.00975945  0.74448810
  -0.00378680  0.76259235  0.25249276
   0.74324550  0.51094354  0.25219599
   0.00446328  0.00153995  0.49170794
   0.50423956  0.50998711  0.50168916
   0.74077641  0.51160608  0.74707691
   0.75245319  0.73583386  0.49967036
HECN                                    
           1
     8.810736    0.003368    0.002471
     0.003350    8.840702    0.002406
     0.002465    0.002415    8.799632
   Ti   Mo   Hf   N    C    Nb   V 
   7   6   7  13  19   6   6
Direct configuration=     9
  -0.00317276 -0.00570120  0.00504815
   0.24126571 -0.00344310  0.25519083
   0.25150939  0.50583481  0.25088690
   0.50152682  0.49902040 -0.00281042
   0.49635899  0.25700745  0.74947833
  -0.00429413  0.50116187  0.49767900
   0.50527370  0.74219976  0.74522331
  -0.00371730  0.23467707  0.26055958
   0.75991521  0.73951584 -0.00103679
   0.00830346  0.26127351  0.74018742
   0.75937554  0.26293449  0.50497302
  -0.00810035  0.74025447  0.74834710
   0.25727749  0.49916349  0.74941793
   0.24386962  0.24898580  0.00045109
   0.50249681  0.25657986  0.25301528
   0.75744918 -0.00515974  0.25585710
   0.75526365  0.25715227 -0.00545495
   0.24764904  0.75048806 -0.00035042
   0.24710476  0.25230844  0.49982206
   0.24609880  0.74768823  0.50048916
   0.25060206  0.24892001  0.25115107
   0.24524931 -0.00025626  0.00611616
  -0.00027810  0.24552363  0.00094386
   0.75022001  0.25506176  0.25173315
   0.75566183  0.00161243  0.00037844
   0.49819353  0.00046815  0.24971694
  -0.00315880  0.50325251  0.25378661
   0.49984483  0.74604854 -0.00516145
  -0.00205103  0.00033149  0.74982917
   0.74349237  0.25417489  0.74746174
   0.75611609 -0.00612926  0.50139166
   0.50141215  0.25407449  0.50634802
   0.50142855 -0.00025326  0.74899938
   0.00672643 -0.00659535  0.25274782
   0.50098130  0.25185754 -0.00632286
   0.24568005  0.75051019  0.25040956
   0.25067503  0.49978968  0.00489450
  -0.00371700  0.75359588  0.00503798
   0.75634803  0.73874290  0.25489367
   0.74693212  0.50530265  0.00029079
   0.50482272  0.50357740  0.25343357
   0.25377248  0.24994105  0.74911534
   0.24400998 -0.00035068  0.49517153
  -0.00467981  0.24903067  0.50072299
   0.25288957  0.75004492  0.74924580
   0.24990844  0.50021562  0.49635110
  -0.01129421  0.75301742  0.49622750
  -0.00782755  0.49970605  0.74485793
   0.74542298  0.74283957  0.74441183
   0.74872244  0.50433160  0.49974146
   0.50904062  0.74274727  0.50489138
   0.50722253  0.50000603  0.74620589
   0.50526822  0.00607648 -0.00586193
  -0.00353192  0.50762083 -0.00037291
   0.50656623  0.74254450  0.25561064
   0.24406805 -0.00059927  0.74403707
   0.49690244 -0.01026851  0.50449907
   0.75509066 -0.00912930  0.74474151
  -0.00367378  0.76181944  0.25230459
   0.74364503  0.51041370  0.25203051
   0.00404365  0.00148379  0.49233406
   0.50395368  0.50932039  0.50157223
   0.74156785  0.51074737  0.74736017
   0.75227799  0.73688994  0.49974947
HECN                                    
           1
     8.789331   -0.009841    0.009798
    -0.009901    8.816603    0.001136
     0.009779    0.001142    8.782019
   Ti   Mo   Hf   N    C    Nb   V 
   7   6   7  13  19   6   6
Direct configuration=    10
  -0.00510155 -0.00737271  0.00652446
   0.24270230 -0.00454773  0.25644483
   0.25259692  0.50800397  0.25072974
   0.49978624  0.49940944 -0.00332419
   0.49354434  0.25854528  0.74838704
  -0.00529044  0.50192360  0.49473896
   0.50671262  0.74110813  0.74543493
  -0.00576523  0.23003997  0.26291097
   0.75998832  0.73913048 -0.00075539
   0.01192189  0.26815084  0.73936513
   0.75913985  0.26793930  0.50553988
  -0.01219234  0.73606485  0.74905111
   0.26043546  0.49798580  0.74948676
   0.24424881  0.24950736  0.00136295
   0.50496821  0.25539119  0.25317510
   0.75431349 -0.00534948  0.25686808
   0.75570498  0.25838998 -0.00708699
   0.24784266  0.75053762 -0.00101451
   0.24780723  0.25204676  0.49933768
   0.24506200  0.74798083  0.50124189
   0.25017011  0.24856763  0.25163750
   0.24607696 -0.00033935  0.00661562
  -0.00112487  0.24480126  0.00158405
   0.75137296  0.25426453  0.25234276
   0.75549208  0.00217386  0.00115484
   0.49994951  0.00089799  0.24888581
  -0.00384237  0.50128260  0.25305856
   0.50049869  0.74748009 -0.00491614
  -0.00217334  0.00105661  0.74988012
   0.74402879  0.25372070  0.74633927
   0.75610202 -0.00645942  0.50188797
   0.50251400  0.25309656  0.50632427
   0.50148726 -0.00050992  0.74896505
   0.00426289 -0.00895527  0.25321646
   0.50154282  0.25105250 -0.00451636
   0.24593322  0.74997660  0.25081927
   0.24997404  0.49980672  0.00506359
  -0.00135589  0.75362218  0.00500088
   0.75718302  0.73995183  0.25460016
   0.74706404  0.50389151  0.00007840
   0.50497929  0.50260713  0.25346119
   0.25417794  0.25009301  0.74922664
   0.24425551 -0.00092763  0.49557649
  -0.00239547  0.24930820  0.50132200
   0.25190506  0.74984451  0.74928872
   0.24981477  0.50087224  0.49632205
  -0.01116766  0.75345264  0.49653642
  -0.00800745  0.49878425  0.74493182
   0.74489836  0.74225368  0.74447992
   0.74874473  0.50417114  0.49949630
   0.50658636  0.74210323  0.50388038
   0.50659698  0.49997926  0.74617981
   0.50762215  0.00805794 -0.00796807
  -0.00274748  0.50972713  0.00104214
   0.50801319  0.74461179  0.25569021
   0.24153148 -0.00120325  0.74281442
   0.49523023 -0.01304193  0.50547656
   0.75649797 -0.01301498  0.74409744
  -0.00371978  0.76547770  0.25366735
   0.74132448  0.51230661  0.25283900
   0.00675126  0.00110747  0.48905936
   0.50497809  0.51275710  0.50172707
   0.73711151  0.51550347  0.74560239
   0.75343743  0.73090528  0.49881053
HECN                                    
           1
     8.787485   -0.010980    0.010430
    -0.011044    8.814525    0.001026
     0.010410    0.001032    8.780500
   Ti   Mo   Hf   N    C    Nb   V 
   7   6   7  13  19   6   6
Direct configuration=    11
  -0.00526863 -0.00751750  0.00665216
   0.24282627 -0.00464306  0.25655308
   0.25269124  0.50819171  0.25071611
   0.49963584  0.49944286 -0.00336846
   0.49330127  0.25867790  0.74829296
  -0.00537627  0.50198931  0.49448497
   0.50683687  0.74101391  0.74545310
  -0.00594306  0.22963871  0.26311426
   0.75999457  0.73909717 -0.00073108
   0.01223568  0.26874607  0.73929389
   0.75912008  0.26837210  0.50558895
  -0.01254671  0.73570200  0.74911219
   0.26070833  0.49788436  0.74949247
   0.24428159  0.24955252  0.00144173
   0.50518172  0.25528871  0.25318872
   0.75404229 -0.00536628  0.25695567
   0.75574342  0.25849706 -0.00722805
   0.24785945  0.75054192 -0.00107192
   0.24786797  0.25202422  0.49929576
   0.24497235  0.74800601  0.50130702
   0.25013268  0.24853710  0.25167957
   0.24614847 -0.00034642  0.00665872
  -0.00119822  0.24473868  0.00163943
   0.75147250  0.25419574  0.25239535
   0.75547743  0.00222240  0.00122196
   0.50010144  0.00093538  0.24881386
  -0.00390167  0.50111214  0.25299567
   0.50055539  0.74760398 -0.00489497
  -0.00218383  0.00111930  0.74988454
   0.74407519  0.25368147  0.74624223
   0.75610073 -0.00648797  0.50193086
   0.50260914  0.25301213  0.50632213
   0.50149231 -0.00053211  0.74896208
   0.00404955 -0.00915967  0.25325711
   0.50159113  0.25098297 -0.00436029
   0.24595501  0.74993049  0.25085465
   0.24991343  0.49980810  0.00507826
  -0.00115175  0.75362476  0.00499750
   0.75725539  0.74005649  0.25457475
   0.74707527  0.50376949  0.00006001
   0.50499269  0.50252324  0.25346355
   0.25421300  0.25010620  0.74923623
   0.24427664 -0.00097749  0.49561146
  -0.00219798  0.24933250  0.50137361
   0.25181992  0.74982705  0.74929249
   0.24980676  0.50092901  0.49631956
  -0.01115668  0.75349030  0.49656312
  -0.00802313  0.49870451  0.74493821
   0.74485292  0.74220294  0.74448584
   0.74874666  0.50415726  0.49947511
   0.50637416  0.74204720  0.50379318
   0.50654289  0.49997687  0.74617760
   0.50782608  0.00822958 -0.00815023
  -0.00267949  0.50990941  0.00116440
   0.50813856  0.74479077  0.25569701
   0.24131218 -0.00125583  0.74270894
   0.49508522 -0.01328198  0.50556113
   0.75661918 -0.01335086  0.74404163
  -0.00372338  0.76579409  0.25378516
   0.74112404  0.51247003  0.25290906
   0.00698554  0.00107524  0.48877616
   0.50506709  0.51305445  0.50174042
   0.73672697  0.51591419  0.74545086
   0.75353696  0.73038785  0.49872923
HECN                                    
           1
     8.778617   -0.010973    0.012061
    -0.010982    8.847536   -0.000806
     0.012046   -0.000785    8.764578
   Ti   Mo   Hf   N    C    Nb   V 
   7   6   7  13  19   6   6
Direct configuration=    12
  -0.00667257 -0.00780216  0.00669941
   0.24463592 -0.00518808  0.25606790
   0.25412867  0.50850091  0.25099492