       N       E                     dE             d eps       ncg     rms          rms(c)
DAV:   1     0.372724913987E+04    0.37272E+04   -0.23399E+05  9720   0.128E+03
DAV:   2    -0.122822831264E+03   -0.38501E+04   -0.37383E+04  9192   0.391E+02
DAV:   3    -0.609293416822E+03   -0.48647E+03   -0.47442E+03 13056   0.107E+02
DAV:   4    -0.645004053908E+03   -0.35711E+02   -0.34686E+02 13416   0.285E+01
DAV:   5    -0.648232377068E+03   -0.32283E+01   -0.31476E+01 16032   0.693E+00    0.707E+01
RMM:   6    -0.734535110110E+03   -0.86303E+02   -0.26857E+03 11894   0.739E+01    0.107E+02
RMM:   7    -0.519520467807E+03    0.21501E+03   -0.50246E+02 12368   0.264E+01    0.439E+01
RMM:   8    -0.511809756754E+03    0.77107E+01   -0.10006E+02 12282   0.110E+01    0.502E+01
RMM:   9    -0.490343686371E+03    0.21466E+02   -0.22924E+01 12340   0.500E+00    0.212E+01
RMM:  10    -0.491961823620E+03   -0.16181E+01   -0.91172E+00 12698   0.309E+00    0.249E+01
RMM:  11    -0.494102390478E+03   -0.21406E+01   -0.18861E+01 12238   0.463E+00    0.402E+01
RMM:  12    -0.489046743908E+03    0.50556E+01   -0.66193E+00 12251   0.308E+00    0.228E+01
RMM:  13    -0.490235385950E+03   -0.11886E+01   -0.64300E+00 12204   0.246E+00    0.282E+01
RMM:  14    -0.489383585873E+03    0.85180E+00   -0.35548E+00 12205   0.203E+00    0.215E+01
RMM:  15    -0.488981298474E+03    0.40229E+00   -0.24818E+00 12219   0.179E+00    0.241E+01
RMM:  16    -0.487643908527E+03    0.13374E+01   -0.14143E+00 12327   0.134E+00    0.118E+01
RMM:  17    -0.487024336207E+03    0.61957E+00   -0.14882E+00 12332   0.113E+00    0.762E+00
RMM:  18    -0.487054122622E+03   -0.29786E-01   -0.65659E-01 12633   0.700E-01    0.112E+01
RMM:  19    -0.486890495657E+03    0.16363E+00   -0.36574E-01 12674   0.598E-01    0.536E+00
RMM:  20    -0.486861327861E+03    0.29168E-01   -0.38508E-01 12480   0.572E-01    0.286E+00
RMM:  21    -0.486850368086E+03    0.10960E-01   -0.15837E-01 12545   0.333E-01    0.215E+00
RMM:  22    -0.486840624222E+03    0.97439E-02   -0.10674E-01 12396   0.285E-01    0.282E+00
RMM:  23    -0.486823756415E+03    0.16868E-01   -0.82015E-02 12751   0.266E-01    0.130E+00
RMM:  24    -0.486816958561E+03    0.67979E-02   -0.40522E-02 12681   0.185E-01    0.890E-01
RMM:  25    -0.486815187285E+03    0.17713E-02   -0.17290E-02 12561   0.111E-01    0.309E-01
RMM:  26    -0.486815502689E+03   -0.31540E-03   -0.10576E-02 12327   0.610E-02    0.282E-01
RMM:  27    -0.486815525939E+03   -0.23251E-04   -0.62610E-03 11730   0.407E-02    0.206E-01
RMM:  28    -0.486815647671E+03   -0.12173E-03   -0.42641E-03 12078   0.354E-02    0.155E-01
RMM:  29    -0.486815823433E+03   -0.17576E-03   -0.26860E-03 11511   0.282E-02    0.149E-01
RMM:  30    -0.486815879213E+03   -0.55780E-04   -0.17531E-03 10408   0.168E-02    0.522E-02
RMM:  31    -0.486815949045E+03   -0.69831E-04   -0.10428E-03 10061   0.128E-02    0.372E-02
RMM:  32    -0.486815998391E+03   -0.49346E-04   -0.58737E-04  8263   0.949E-03    0.216E-02
RMM:  33    -0.486816033535E+03   -0.35144E-04   -0.39804E-04  6488   0.709E-03    0.740E-03
RMM:  34    -0.486816049078E+03   -0.15543E-04   -0.18479E-04  5517   0.554E-03    0.833E-03
RMM:  35    -0.486816063259E+03   -0.14181E-04   -0.16032E-04  5395   0.486E-03    0.868E-03
RMM:  36    -0.486816069806E+03   -0.65472E-05   -0.78147E-05  4984   0.415E-03
   1 F= -.48681607E+03 E0= -.48656988E+03  d E =-.486816E+03
       N       E                     dE             d eps       ncg     rms          rms(c)
DAV:   1    -0.380087229596E+04   -0.33141E+04   -0.82620E+04  9024   0.822E+02    0.351E+02
RMM:   2    -0.132197140073E+04    0.24789E+04   -0.64643E+03 12008   0.207E+02    0.169E+02
RMM:   3    -0.580882233284E+03    0.74109E+03   -0.19544E+03  8847   0.118E+02    0.443E+01
RMM:   4    -0.603883219783E+03   -0.23001E+02   -0.40081E+02 12077   0.427E+01    0.399E+01
RMM:   5    -0.565769373771E+03    0.38114E+02   -0.97444E+01 12257   0.228E+01    0.144E+01
RMM:   6    -0.569863259840E+03   -0.40939E+01   -0.46631E+01 14722   0.102E+01    0.202E+01
RMM:   7    -0.568831738733E+03    0.10315E+01   -0.16815E+01 14398   0.691E+00    0.129E+01
RMM:   8    -0.569045874558E+03   -0.21414E+00   -0.85555E+00 14479   0.509E+00    0.964E+00
RMM:   9    -0.569986334028E+03   -0.94046E+00   -0.45679E+00 14895   0.316E+00    0.925E+00
RMM:  10    -0.570602704212E+03   -0.61637E+00   -0.60184E+00 12683   0.507E+00    0.838E+00
RMM:  11    -0.570359107897E+03    0.24360E+00   -0.18168E+00 14078   0.235E+00    0.271E+00
RMM:  12    -0.570401406381E+03   -0.42298E-01   -0.10269E+00 14178   0.172E+00    0.283E+00
RMM:  13    -0.570336631032E+03    0.64775E-01   -0.36061E-01 14949   0.921E-01    0.694E-01
RMM:  14    -0.570331723484E+03    0.49075E-02   -0.82120E-02 14773   0.397E-01    0.593E-01
RMM:  15    -0.570330302412E+03    0.14211E-02   -0.22294E-02 15036   0.224E-01    0.447E-01
RMM:  16    -0.570327899767E+03    0.24026E-02   -0.64401E-03 14778   0.172E-01    0.904E-02
RMM:  17    -0.570327881193E+03    0.18575E-04   -0.18740E-03 14735   0.767E-02    0.824E-02
RMM:  18    -0.570327957907E+03   -0.76714E-04   -0.71493E-04 14794   0.427E-02    0.586E-02
RMM:  19    -0.570327964797E+03   -0.68904E-05   -0.28156E-04 14392   0.291E-02    0.411E-02
RMM:  20    -0.570327930926E+03    0.33871E-04   -0.10661E-04 11657   0.182E-02    0.796E-03
RMM:  21    -0.570327931781E+03   -0.85463E-06   -0.43780E-05  6679   0.114E-02
   2 F= -.57032793E+03 E0= -.57026689E+03  d E =-.835119E+02
       N       E                     dE             d eps       ncg     rms          rms(c)
DAV:   1    -0.125809204985E+04   -0.68776E+03   -0.12054E+04  9576   0.344E+02    0.202E+02
RMM:   2    -0.142068215750E+04   -0.16259E+03   -0.24514E+03 10465   0.101E+02    0.109E+02
RMM:   3    -0.882809619791E+03    0.53787E+03   -0.79531E+02 12915   0.516E+01    0.703E+01
RMM:   4    -0.734898081941E+03    0.14791E+03   -0.21910E+02 12819   0.240E+01    0.496E+01
RMM:   5    -0.711179433260E+03    0.23719E+02   -0.51703E+02 10960   0.378E+01    0.601E+01
RMM:   6    -0.712285576936E+03   -0.11061E+01   -0.12130E+02 10653   0.197E+01    0.433E+01
RMM:   7    -0.671666960545E+03    0.40619E+02   -0.24426E+01 12030   0.987E+00    0.263E+01
RMM:   8    -0.662077327439E+03    0.95896E+01   -0.10364E+01 12374   0.613E+00    0.122E+01
RMM:   9    -0.662340097442E+03   -0.26277E+00   -0.14075E+01 13193   0.554E+00    0.137E+01
RMM:  10    -0.661443574319E+03    0.89652E+00   -0.21873E+00 14224   0.185E+00    0.895E+00
RMM:  11    -0.661955499162E+03   -0.51192E+00   -0.30228E+00 12654   0.252E+00    0.998E+00
RMM:  12    -0.661560514948E+03    0.39498E+00   -0.53680E-01 13785   0.114E+00    0.759E+00
RMM:  13    -0.661159082027E+03    0.40143E+00   -0.53150E-01 12905   0.124E+00    0.338E+00
RMM:  14    -0.661188447992E+03   -0.29366E-01   -0.34466E-01 13678   0.792E-01    0.322E+00
RMM:  15    -0.661155387045E+03    0.33061E-01   -0.19053E-01 13545   0.624E-01    0.142E+00
RMM:  16    -0.661154731872E+03    0.65517E-03   -0.73104E-02 13668   0.344E-01    0.136E+00
RMM:  17    -0.661145728290E+03    0.90036E-02   -0.32953E-02 14074   0.243E-01    0.681E-01
RMM:  18    -0.661152856624E+03   -0.71283E-02   -0.33879E-02 13334   0.245E-01    0.112E+00
RMM:  19    -0.661143524096E+03    0.93325E-02   -0.71978E-03 12797   0.147E-01    0.398E-01
RMM:  20    -0.661142803700E+03    0.72040E-03   -0.35247E-03 13223   0.736E-02    0.285E-01
RMM:  21    -0.661142438545E+03    0.36515E-03   -0.16014E-03 12794   0.569E-02    0.128E-01
RMM:  22    -0.661142265228E+03    0.17332E-03   -0.40630E-04 11806   0.326E-02    0.396E-02
RMM:  23    -0.661142299013E+03   -0.33785E-04   -0.35761E-04 11398   0.275E-02    0.749E-02
RMM:  24    -0.661142259813E+03    0.39200E-04   -0.60144E-05  8779   0.115E-02    0.306E-02
RMM:  25    -0.661142254450E+03    0.53630E-05   -0.29417E-05  6740   0.866E-03
   3 F= -.66114225E+03 E0= -.66105603E+03  d E =-.174326E+03
       N       E                     dE             d eps       ncg     rms          rms(c)
DAV:   1    -0.665191271189E+03   -0.40490E+01   -0.63458E+01 10200   0.230E+01    0.144E+01
RMM:   2    -0.685017779140E+03   -0.19827E+02   -0.59276E+01  9703   0.149E+01    0.508E+01
RMM:   3    -0.663167753985E+03    0.21850E+02   -0.10981E+01  9701   0.691E+00    0.739E+00
RMM:   4    -0.662703043516E+03    0.46471E+00   -0.17087E+00 11614   0.209E+00    0.744E+00
RMM:   5    -0.662470475673E+03    0.23257E+00   -0.67213E-01 10261   0.153E+00    0.564E+00
RMM:   6    -0.662176511872E+03    0.29396E+00   -0.54310E-01 10911   0.146E+00    0.245E+00
RMM:   7    -0.662197699560E+03   -0.21188E-01   -0.19052E-01 11733   0.857E-01    0.341E+00
RMM:   8    -0.662124975343E+03    0.72724E-01   -0.80819E-02 12509   0.492E-01    0.634E-01
RMM:   9    -0.662125996445E+03   -0.10211E-02   -0.23475E-02 13278   0.230E-01    0.959E-01
RMM:  10    -0.662121142136E+03    0.48543E-02   -0.90686E-03 13402   0.146E-01    0.347E-01
RMM:  11    -0.662121790724E+03   -0.64859E-03   -0.40292E-03 13212   0.767E-02    0.271E-01
RMM:  12    -0.662123050386E+03   -0.12597E-02   -0.25096E-03 13148   0.708E-02    0.354E-01
RMM:  13    -0.662123281742E+03   -0.23136E-03   -0.18853E-03 12294   0.650E-02    0.212E-01
RMM:  14    -0.662123900164E+03   -0.61842E-03   -0.21295E-03 13014   0.663E-02    0.132E-01
RMM:  15    -0.662123931273E+03   -0.31108E-04   -0.90295E-04 11583   0.408E-02    0.120E-01
RMM:  16    -0.662123871895E+03    0.59377E-04   -0.36360E-04 11365   0.247E-02    0.295E-02
RMM:  17    -0.662123866600E+03    0.52951E-05   -0.10880E-04  9776   0.130E-02    0.178E-02
RMM:  18    -0.662123861494E+03    0.51057E-05   -0.23533E-05  7466   0.863E-03
   4 F= -.66212386E+03 E0= -.66204060E+03  d E =-.175308E+03
       N       E                     dE             d eps       ncg     rms          rms(c)
DAV:   1    -0.663289434994E+03   -0.11656E+01   -0.20986E+01 10248   0.133E+01    0.857E+00
RMM:   2    -0.670438583263E+03   -0.71491E+01   -0.18160E+01  9863   0.818E+00    0.311E+01
RMM:   3    -0.662633714649E+03    0.78049E+01   -0.39939E+00  9726   0.416E+00    0.429E+00
RMM:   4    -0.662551813880E+03    0.81901E-01   -0.65601E-01 11192   0.136E+00    0.552E+00
RMM:   5    -0.662352437593E+03    0.19938E+00   -0.23981E-01 10442   0.869E-01    0.249E+00
RMM:   6    -0.662321966326E+03    0.30471E-01   -0.17946E-01 11059   0.823E-01    0.259E+00
RMM:   7    -0.662282150176E+03    0.39816E-01   -0.71999E-02 11425   0.549E-01    0.130E+00
RMM:   8    -0.662271760143E+03    0.10390E-01   -0.28235E-02 13131   0.266E-01    0.598E-01
RMM:   9    -0.662271954037E+03   -0.19389E-03   -0.95100E-03 12992   0.162E-01    0.657E-01
RMM:  10    -0.662269301239E+03    0.26528E-02   -0.37922E-03 12845   0.944E-02    0.176E-01
RMM:  11    -0.662269675596E+03   -0.37436E-03   -0.15313E-03 12489   0.488E-02    0.214E-01
RMM:  12    -0.662269748597E+03   -0.73001E-04   -0.72330E-04 11898   0.387E-02    0.159E-01
RMM:  13    -0.662270070380E+03   -0.32178E-03   -0.62718E-04 12111   0.330E-02    0.102E-01
RMM:  14    -0.662270534473E+03   -0.46409E-03   -0.79221E-04 12058   0.428E-02    0.190E-01
RMM:  15    -0.662270355101E+03    0.17937E-03   -0.42670E-04 11188   0.327E-02    0.229E-02
RMM:  16    -0.662270362026E+03   -0.69251E-05   -0.15765E-04 10132   0.153E-02    0.116E-02
RMM:  17    -0.662270361576E+03    0.44989E-06   -0.40450E-05  8409   0.990E-03
   5 F= -.66227036E+03 E0= -.66218870E+03  d E =-.175454E+03
       N       E                     dE             d eps       ncg     rms          rms(c)
DAV:   1    -0.660910895029E+03    0.13595E+01   -0.46626E+02  8736   0.672E+01    0.470E+00
RMM:   2    -0.664988736234E+03   -0.40778E+01   -0.44487E+01 10314   0.158E+01    0.675E+00
RMM:   3    -0.664840703036E+03    0.14803E+00   -0.35453E+00 10524   0.559E+00    0.553E+00
RMM:   4    -0.664573664489E+03    0.26704E+00   -0.86031E-01 12099   0.190E+00    0.275E+00
RMM:   5    -0.664533446829E+03    0.40218E-01   -0.30451E-01 12100   0.928E-01    0.294E+00
RMM:   6    -0.664502448093E+03    0.30999E-01   -0.26969E-01 11026   0.940E-01    0.245E+00
RMM:   7    -0.664456855155E+03    0.45593E-01   -0.99517E-02 10966   0.604E-01    0.149E+00
RMM:   8    -0.664437905213E+03    0.18950E-01   -0.35722E-02 11770   0.309E-01    0.472E-01
RMM:   9    -0.664436949188E+03    0.95602E-03   -0.17311E-02 12301   0.170E-01    0.521E-01
RMM:  10    -0.664435431219E+03    0.15180E-02   -0.44257E-03 12936   0.110E-01    0.280E-01
RMM:  11    -0.664434975892E+03    0.45533E-03   -0.17283E-03 12729   0.585E-02    0.152E-01
RMM:  12    -0.664434996241E+03   -0.20350E-04   -0.81023E-04 11861   0.417E-02    0.164E-01
RMM:  13    -0.664434886174E+03    0.11007E-03   -0.51468E-04 11786   0.330E-02    0.704E-02
RMM:  14    -0.664434925369E+03   -0.39195E-04   -0.18724E-04 11474   0.226E-02    0.941E-02
RMM:  15    -0.664434868729E+03    0.56640E-04   -0.86949E-05 10230   0.167E-02    0.239E-02
RMM:  16    -0.664434869984E+03   -0.12548E-05   -0.48061E-05  8772   0.918E-03
   6 F= -.66443487E+03 E0= -.66436461E+03  d E =-.216451E+01
       N       E                     dE             d eps       ncg     rms          rms(c)
DAV:   1    -0.663897575839E+03    0.53729E+00   -0.10592E+02  8736   0.322E+01    0.229E+00
RMM:   2    -0.664819084725E+03   -0.92151E+00   -0.10174E+01 10267   0.767E+00    0.316E+00
RMM:   3    -0.664784982716E+03    0.34102E-01   -0.82315E-01 10795   0.262E+00    0.259E+00
RMM:   4    -0.664728003256E+03    0.56979E-01   -0.19996E-01 12345   0.907E-01    0.138E+00
RMM:   5    -0.664714513340E+03    0.13490E-01   -0.65929E-02 12072   0.416E-01    0.131E+00
RMM:   6    -0.664708278871E+03    0.62345E-02   -0.56501E-02 10886   0.441E-01    0.112E+00
RMM:   7    -0.664701057121E+03    0.72217E-02   -0.23878E-02 10989   0.292E-01    0.886E-01
RMM:   8    -0.664694586816E+03    0.64703E-02   -0.91715E-03 11420   0.166E-01    0.275E-01
RMM:   9    -0.664696060729E+03   -0.14739E-02   -0.46744E-03 12137   0.106E-01    0.541E-01
RMM:  10    -0.664693919034E+03    0.21417E-02   -0.22921E-03 11542   0.802E-02    0.877E-02
RMM:  11    -0.664693857854E+03    0.61180E-04   -0.51361E-04 11661   0.297E-02    0.762E-02
RMM:  12    -0.664693866627E+03   -0.87733E-05   -0.21076E-04 10990   0.225E-02    0.803E-02
RMM:  13    -0.664693832388E+03    0.34239E-04   -0.13498E-04 11111   0.166E-02    0.213E-02
RMM:  14    -0.664693843644E+03   -0.11256E-04   -0.39557E-05  7377   0.108E-02    0.319E-02
RMM:  15    -0.664693837436E+03    0.62073E-05   -0.17232E-05  5694   0.995E-03
   7 F= -.66469384E+03 E0= -.66462845E+03  d E =-.242348E+01
       N       E                     dE             d eps       ncg     rms          rms(c)
DAV:   1    -0.664905069087E+03   -0.21123E+00   -0.40853E+02  8736   0.749E+01    0.198E+01
RMM:   2    -0.692559327765E+03   -0.27654E+02   -0.89746E+01 11074   0.209E+01    0.341E+01
RMM:   3    -0.666715718263E+03    0.25844E+02   -0.19055E+01  9705   0.105E+01    0.898E+00
RMM:   4    -0.665852768573E+03    0.86295E+00   -0.53088E+00 11746   0.407E+00    0.725E+00
RMM:   5    -0.665672428831E+03    0.18034E+00   -0.18738E+00 11755   0.228E+00    0.720E+00
RMM:   6    -0.665265580469E+03    0.40685E+00   -0.82863E-01 11099   0.164E+00    0.359E+00
RMM:   7    -0.665294560849E+03   -0.28980E-01   -0.45476E-01 11297   0.131E+00    0.438E+00
RMM:   8    -0.665153357640E+03    0.14120E+00   -0.18872E-01 11703   0.836E-01    0.142E+00
RMM:   9    -0.665148558774E+03    0.47989E-02   -0.63619E-02 13099   0.426E-01    0.137E+00
RMM:  10    -0.665136550455E+03    0.12008E-01   -0.31159E-02 13158   0.274E-01    0.478E-01
RMM:  11    -0.665137657321E+03   -0.11069E-02   -0.11999E-02 13611   0.145E-01    0.508E-01
RMM:  12    -0.665137329994E+03    0.32733E-03   -0.55103E-03 13745   0.108E-01    0.348E-01
RMM:  13    -0.665138018248E+03   -0.68825E-03   -0.35121E-03 13344   0.782E-02    0.237E-01
RMM:  14    -0.665139468754E+03   -0.14505E-02   -0.36662E-03 12979   0.961E-02    0.373E-01
RMM:  15    -0.665138502954E+03    0.96580E-03   -0.22352E-03 12298   0.787E-02    0.568E-02
RMM:  16    -0.665138502133E+03    0.82122E-06   -0.78722E-04 11814   0.322E-02    0.541E-02
RMM:  17    -0.665138481919E+03    0.20214E-04   -0.20871E-04 11013   0.201E-02    0.231E-02
RMM:  18    -0.665138479437E+03    0.24818E-05   -0.47425E-05  8637   0.108E-02
   8 F= -.66513848E+03 E0= -.66507644E+03  d E =-.444642E+00
       N       E                     dE             d eps       ncg     rms          rms(c)
DAV:   1    -0.665186629966E+03   -0.48148E-01   -0.31945E+01  8784   0.216E+01    0.488E+00
RMM:   2    -0.667593916756E+03   -0.24073E+01   -0.93499E+00  9917   0.661E+00    0.154E+01
RMM:   3    -0.665341352705E+03    0.22526E+01   -0.15913E+00  9583   0.292E+00    0.246E+00
RMM:   4    -0.665306468254E+03    0.34884E-01   -0.30033E-01 11641   0.102E+00    0.268E+00
RMM:   5    -0.665247536822E+03    0.58931E-01   -0.93798E-02 10214   0.608E-01    0.145E+00
RMM:   6    -0.665246102384E+03    0.14344E-02   -0.72328E-02 10535   0.516E-01    0.177E+00
RMM:   7    -0.665224485690E+03    0.21617E-01   -0.35970E-02 11102   0.388E-01    0.614E-01
RMM:   8    -0.665221092436E+03    0.33933E-02   -0.97188E-03 13446   0.159E-01    0.255E-01
RMM:   9    -0.665221210947E+03   -0.11851E-03   -0.34634E-03 13013   0.940E-02    0.307E-01
RMM:  10    -0.665220665653E+03    0.54529E-03   -0.15078E-03 12386   0.615E-02    0.113E-01
RMM:  11    -0.665220801941E+03   -0.13629E-03   -0.61508E-04 12038   0.338E-02    0.113E-01
RMM:  12    -0.665220848529E+03   -0.46588E-04   -0.34152E-04 11384   0.287E-02    0.943E-02
RMM:  13    -0.665220929654E+03   -0.81124E-04   -0.28201E-04 11840   0.242E-02    0.513E-02
RMM:  14    -0.665220992926E+03   -0.63272E-04   -0.22885E-04 11194   0.220E-02    0.492E-02
RMM:  15    -0.665220986908E+03    0.60178E-05   -0.10032E-04 10268   0.166E-02    0.299E-02
RMM:  16    -0.665220979535E+03    0.73726E-05   -0.33458E-05  7744   0.988E-03
   9 F= -.66522098E+03 E0= -.66515826E+03  d E =-.527142E+00
       N       E                     dE             d eps       ncg     rms          rms(c)
DAV:   1    -0.661718325625E+03    0.35027E+01   -0.28240E+02  8952   0.674E+01    0.501E+00
RMM:   2    -0.666883110242E+03   -0.51648E+01   -0.48982E+01 10029   0.155E+01    0.928E+00
RMM:   3    -0.665856314359E+03    0.10268E+01   -0.36090E+00  9041   0.542E+00    0.396E+00
RMM:   4    -0.665735374685E+03    0.12094E+00   -0.72273E-01 12432   0.163E+00    0.252E+00
RMM:   5    -0.665690740582E+03    0.44634E-01   -0.17156E-01 10619   0.846E-01    0.196E+00
RMM:   6    -0.665654301673E+03    0.36439E-01   -0.12228E-01 11752   0.628E-01    0.108E+00
RMM:   7    -0.665660253570E+03   -0.59519E-02   -0.66549E-02 12356   0.466E-01    0.168E+00
RMM:   8    -0.665638379473E+03    0.21874E-01   -0.27392E-02 11906   0.315E-01    0.368E-01
RMM:   9    -0.665638491933E+03   -0.11246E-03   -0.10326E-02 13097   0.136E-01    0.321E-01
RMM:  10    -0.665638395771E+03    0.96162E-04   -0.40301E-03 13225   0.976E-02    0.281E-01
RMM:  11    -0.665638043604E+03    0.35217E-03   -0.16413E-03 12550   0.572E-02    0.132E-01
RMM:  12    -0.665638274209E+03   -0.23061E-03   -0.82863E-04 12220   0.405E-02    0.151E-01
RMM:  13    -0.665638312259E+03   -0.38050E-04   -0.56308E-04 11888   0.393E-02    0.843E-02
RMM:  14    -0.665638355916E+03   -0.43657E-04   -0.33930E-04 12080   0.293E-02    0.347E-02
RMM:  15    -0.665638376738E+03   -0.20822E-04   -0.16767E-04 10932   0.211E-02    0.629E-02
RMM:  16    -0.665638342908E+03    0.33830E-04   -0.71204E-05 10074   0.146E-02    0.128E-02
RMM:  17    -0.665638338776E+03    0.41320E-05   -0.99210E-06  6018   0.719E-03
  10 F= -.66563834E+03 E0= -.66558249E+03  d E =-.417359E+00
       N       E                     dE             d eps       ncg     rms          rms(c)
DAV:   1    -0.665631443019E+03    0.68999E-02   -0.54053E-01  9408   0.302E+00    0.218E-01
RMM:   2    -0.665641218249E+03   -0.97752E-02   -0.98164E-02  9873   0.696E-01    0.331E-01
RMM:   3    -0.665639858140E+03    0.13601E-02   -0.75580E-03  9008   0.257E-01    0.196E-01
RMM:   4    -0.665639557130E+03    0.30101E-03   -0.14430E-03 12221   0.758E-02    0.987E-02
RMM:   5    -0.665639511260E+03    0.45870E-04   -0.31471E-04  9346   0.350E-02    0.913E-02
RMM:   6    -0.665639440713E+03    0.70547E-04   -0.23238E-04 10783   0.262E-02    0.555E-02
RMM:   7    -0.665639445128E+03   -0.44148E-05   -0.13089E-04  9661   0.215E-02    0.735E-02
RMM:   8    -0.665639396784E+03    0.48343E-04   -0.49962E-05  8044   0.146E-02    0.140E-02
RMM:   9    -0.665639394440E+03    0.23440E-05   -0.16174E-05  5435   0.812E-03
  11 F= -.66563939E+03 E0= -.66558336E+03  d E =-.418415E+00
       N       E                     dE             d eps       ncg     rms          rms(c)
DAV:   1    -0.664610353837E+03    0.10290E+01   -0.13415E+02  8736   0.435E+01    0.384E+00
RMM:   2    -0.666193241960E+03   -0.15829E+01   -0.18393E+01 10078   0.981E+00    0.413E+00
RMM:   3    -0.666064518564E+03    0.12872E+00   -0.14547E+00  8903   0.367E+00    0.351E+00
RMM:   4    -0.665944594976E+03    0.11992E+00   -0.35495E-01 11838   0.120E+00    0.193E+00
RMM:   5    -0.665931020067E+03    0.13575E-01   -0.12511E-01 11363   0.697E-01    0.173E+00
RMM:   6    -0.665905696827E+03    0.25323E-01   -0.61095E-02 11426   0.437E-01    0.942E-01
RMM:   7    -0.665901122769E+03    0.45741E-02   -0.24333E-02 11334   0.288E-01    0.774E-01
RMM:   8    -0.665895672927E+03    0.54498E-02   -0.85350E-03 12096   0.150E-01    0.169E-01
RMM:   9    -0.665895842252E+03   -0.16932E-03   -0.27337E-03 12656   0.746E-02    0.228E-01
RMM:  10    -0.665895438786E+03    0.40347E-03   -0.11440E-03 11725   0.546E-02    0.931E-02
RMM:  11    -0.665895379995E+03    0.58791E-04   -0.37615E-04 11641   0.260E-02    0.422E-02
RMM:  12    -0.665895381082E+03   -0.10869E-05   -0.16599E-04 11200   0.177E-02    0.420E-02
RMM:  13    -0.665895376803E+03    0.42793E-05   -0.81785E-05  9879   0.154E-02
  12 F= -.66589538E+03 E0= -.66584370E+03  d E =-.255982E+00
       N       E                     dE             d eps       ncg     rms          rms(c)
DAV:   1    -0.665887410740E+03    0.79703E-02   -0.10383E+00  9456   0.386E+00    0.344E-01
RMM:   2    -0.665899904177E+03   -0.12493E-01   -0.13997E-01 10126   0.856E-01    0.428E-01
RMM:   3    -0.665898290414E+03    0.16138E-02   -0.11432E-02  8873   0.319E-01    0.275E-01
RMM:   4    -0.665897587761E+03    0.70265E-03   -0.28352E-03 11970   0.106E-01    0.196E-01
RMM:   5    -0.665897360659E+03    0.22710E-03   -0.96732E-04 10726   0.606E-02    0.141E-01
RMM:   6    -0.665897220900E+03    0.13976E-03   -0.49927E-04 11454   0.395E-02    0.100E-01
RMM:   7    -0.665897147872E+03    0.73028E-04   -0.20000E-04  9638   0.267E-02    0.549E-02
RMM:   8    -0.665897117707E+03    0.30165E-04   -0.62988E-05  9688   0.126E-02    0.144E-02
RMM:   9    -0.665897118870E+03   -0.11635E-05   -0.18985E-05  5818   0.826E-03
  13 F= -.66589712E+03 E0= -.66584585E+03  d E =-.257724E+00
       N       E                     dE             d eps       ncg     rms          rms(c)
DAV:   1    -0.665677145470E+03    0.21997E+00   -0.39501E+01  9072   0.210E+01    0.161E+00
RMM:   2    -0.666087310406E+03   -0.41016E+00   -0.41335E+00 10312   0.475E+00    0.243E+00
RMM:   3    -0.666027231498E+03    0.60079E-01   -0.32943E-01  8909   0.183E+00    0.129E+00
RMM:   4    -0.666014768256E+03    0.12463E-01   -0.74936E-02 12792   0.519E-01    0.726E-01
RMM:   5    -0.666012453670E+03    0.23146E-02   -0.18596E-02 11626   0.258E-01    0.662E-01
RMM:   6    -0.666009054128E+03    0.33995E-02   -0.12942E-02 11421   0.193E-01    0.423E-01
RMM:   7    -0.666009024994E+03    0.29134E-04   -0.69020E-03 11869   0.150E-01    0.489E-01
RMM:   8    -0.666006955887E+03    0.20691E-02   -0.25504E-03 11775   0.949E-02    0.101E-01
RMM:   9    -0.666006870320E+03    0.85567E-04   -0.80844E-04 12620   0.368E-02    0.584E-02
RMM:  10    -0.666006875785E+03   -0.54643E-05   -0.28429E-04 11871   0.248E-02    0.721E-02
RMM:  11    -0.666006847044E+03    0.28741E-04   -0.12218E-04 10724   0.180E-02    0.372E-02
RMM:  12    -0.666006843813E+03    0.32316E-05   -0.61058E-05  9680   0.122E-02
  14 F= -.66600684E+03 E0= -.66595612E+03  d E =-.109725E+00
       N       E                     dE             d eps       ncg     rms          rms(c)
DAV:   1    -0.665966794724E+03    0.40052E-01   -0.57483E+00  8832   0.803E+00    0.618E-01
RMM:   2    -0.666028232625E+03   -0.61438E-01   -0.61795E-01 10330   0.185E+00    0.940E-01
RMM:   3    -0.666019440889E+03    0.87917E-02   -0.50123E-02  8891   0.708E-01    0.501E-01
RMM:   4    -0.666017613031E+03    0.18279E-02   -0.11450E-02 12686   0.205E-01    0.281E-01
RMM:   5    -0.666017274722E+03    0.33831E-03   -0.27863E-03 11492   0.101E-01    0.259E-01
RMM:   6    -0.666016771780E+03    0.50294E-03   -0.19785E-03 11390   0.768E-02    0.167E-01
RMM:   7    -0.666016760916E+03    0.10864E-04   -0.10376E-03 11802   0.583E-02    0.188E-01
RMM:   8    -0.666016449091E+03    0.31182E-03   -0.37469E-04 10749   0.361E-02    0.373E-02
RMM:   9    -0.666016437316E+03    0.11775E-04   -0.12061E-04 11041   0.150E-02    0.236E-02
RMM:  10    -0.666016437161E+03    0.15543E-06   -0.44308E-05  7740   0.111E-02
  15 F= -.66601644E+03 E0= -.66596583E+03  d E =-.119318E+00
       N       E                     dE             d eps       ncg     rms          rms(c)
DAV:   1    -0.666006425977E+03    0.10011E-01   -0.28374E+01  9072   0.174E+01    0.338E+00
RMM:   2    -0.666870080565E+03   -0.86365E+00   -0.44193E+00 10233   0.480E+00    0.827E+00
RMM:   3    -0.666108520846E+03    0.76156E+00   -0.69916E-01 10137   0.198E+00    0.166E+00
RMM:   4    -0.666094254709E+03    0.14266E-01   -0.15034E-01 12023   0.708E-01    0.191E+00
RMM:   5    -0.666064705847E+03    0.29549E-01   -0.54450E-02 10300   0.471E-01    0.962E-01
RMM:   6    -0.666059519353E+03    0.51865E-02   -0.37006E-02 10758   0.380E-01    0.899E-01
RMM:   7    -0.666054029018E+03    0.54903E-02   -0.15466E-02 11197   0.259E-01    0.442E-01
RMM:   8    -0.666052355612E+03    0.16734E-02   -0.45548E-03 13344   0.107E-01    0.156E-01
RMM:   9    -0.666052371120E+03   -0.15508E-04   -0.16074E-03 12904   0.613E-02    0.171E-01
RMM:  10    -0.666052226994E+03    0.14413E-03   -0.68439E-04 12138   0.397E-02    0.741E-02
RMM:  11    -0.666052290896E+03   -0.63902E-04   -0.27134E-04 11250   0.219E-02    0.569E-02
RMM:  12    -0.666052360349E+03   -0.69454E-04   -0.18456E-04 11142   0.206E-02    0.670E-02
RMM:  13    -0.666052387832E+03   -0.27483E-04   -0.14331E-04 10968   0.196E-02    0.342E-02
RMM:  14    -0.666052406023E+03   -0.18191E-04   -0.87624E-05  9892   0.147E-02    0.143E-02
RMM:  15    -0.666052410257E+03   -0.42340E-05   -0.37513E-05  7980   0.115E-02
  16 F= -.66605241E+03 E0= -.66600260E+03  d E =-.359731E-01
       N       E                     dE             d eps       ncg     rms          rms(c)
DAV:   1    -0.666052743400E+03   -0.33738E-03   -0.95548E-01  9408   0.320E+00    0.634E-01
RMM:   2    -0.666082584641E+03   -0.29841E-01   -0.14493E-01 10432   0.875E-01    0.146E+00
RMM:   3    -0.666056001353E+03    0.26583E-01   -0.24806E-02 10228   0.376E-01    0.252E-01
RMM:   4    -0.666055439893E+03    0.56146E-03   -0.47556E-03 12119   0.123E-01    0.288E-01
RMM:   5    -0.666054867750E+03    0.57214E-03   -0.16660E-03 10598   0.812E-02    0.196E-01
RMM:   6    -0.666054509301E+03    0.35845E-03   -0.10669E-03 10796   0.641E-02    0.109E-01
RMM:   7    -0.666054492165E+03    0.17136E-04   -0.42354E-04 10685   0.420E-02    0.109E-01
RMM:   8    -0.666054381834E+03    0.11033E-03   -0.14467E-04 10502   0.221E-02    0.238E-02
RMM:   9    -0.666054378646E+03    0.31885E-05   -0.49212E-05  8165   0.113E-02
  17 F= -.66605438E+03 E0= -.66600444E+03  d E =-.379415E-01
       N       E                     dE             d eps       ncg     rms          rms(c)
DAV:   1    -0.665915396655E+03    0.13899E+00   -0.22845E+01  8736   0.153E+01    0.173E+00
RMM:   2    -0.666257193619E+03   -0.34180E+00   -0.26409E+00 10348   0.366E+00    0.351E+00
RMM:   3    -0.666104702549E+03    0.15249E+00   -0.27187E-01  9671   0.138E+00    0.866E-01
RMM:   4    -0.666099690153E+03    0.50124E-02   -0.50886E-02 12310   0.435E-01    0.864E-01
RMM:   5    -0.666094236407E+03    0.54537E-02   -0.15272E-02 11283   0.244E-01    0.522E-01
RMM:   6    -0.666091221221E+03    0.30152E-02   -0.93456E-03 12035   0.163E-01    0.253E-01
RMM:   7    -0.666091767590E+03   -0.54637E-03   -0.50770E-03 12571   0.133E-01    0.400E-01
RMM:   8    -0.666090335244E+03    0.14323E-02   -0.18462E-03 11931   0.822E-02    0.787E-02
RMM:   9    -0.666090351373E+03   -0.16130E-04   -0.63910E-04 11924   0.326E-02    0.912E-02
RMM:  10    -0.666090321217E+03    0.30157E-04   -0.24413E-04 11171   0.238E-02    0.575E-02
RMM:  11    -0.666090313668E+03    0.75487E-05   -0.98409E-05 10254   0.148E-02
  18 F= -.66609031E+03 E0= -.66603999E+03  d E =-.359350E-01
       N       E                     dE             d eps       ncg     rms          rms(c)
DAV:   1    -0.666086738758E+03    0.35825E-02   -0.57686E-01  9408   0.244E+00    0.280E-01
RMM:   2    -0.666095704916E+03   -0.89662E-02   -0.66968E-02 10327   0.587E-01    0.600E-01
RMM:   3    -0.666091525724E+03    0.41792E-02   -0.70248E-03  9765   0.217E-01    0.151E-01
RMM:   4    -0.666091406232E+03    0.11949E-03   -0.13685E-03 12135   0.729E-02    0.156E-01
RMM:   5    -0.666091214464E+03    0.19177E-03   -0.43974E-04 10143   0.418E-02    0.770E-02
RMM:   6    -0.666091150340E+03    0.64125E-04   -0.26268E-04 11827   0.277E-02    0.485E-02
RMM:   7    -0.666091166767E+03   -0.16427E-04   -0.15353E-04 10732   0.238E-02    0.701E-02
RMM:   8    -0.666091121908E+03    0.44858E-04   -0.58231E-05  9218   0.153E-02    0.152E-02
RMM:   9    -0.666091122047E+03   -0.13887E-06   -0.15576E-05  5710   0.813E-03
  19 F= -.66609112E+03 E0= -.66604079E+03  d E =-.367434E-01
       N       E                     dE             d eps       ncg     rms          rms(c)
DAV:   1    -0.665996472050E+03    0.94650E-01   -0.12309E+01  9072   0.115E+01    0.726E-01
RMM:   2    -0.666127101261E+03   -0.13063E+00   -0.13889E+00 10307   0.254E+00    0.933E-01
RMM:   3    -0.666125831894E+03    0.12694E-02   -0.96468E-02  9442   0.875E-01    0.768E-01
RMM:   4    -0.666120727100E+03    0.51048E-02   -0.18120E-02 12605   0.268E-01    0.303E-01
RMM:   5    -0.666120349662E+03    0.37744E-03   -0.45375E-03 11996   0.115E-01    0.338E-01
RMM:   6    -0.666119630142E+03    0.71952E-03   -0.29851E-03 11573   0.909E-02    0.218E-01
RMM:   7    -0.666119160717E+03    0.46942E-03   -0.16102E-03 11255   0.693E-02    0.131E-01
RMM:   8    -0.666119034593E+03    0.12612E-03   -0.44274E-04 10594   0.401E-02    0.794E-02
RMM:   9    -0.666119018538E+03    0.16055E-04   -0.20765E-04 10590   0.231E-02    0.645E-02
RMM:  10    -0.666118983867E+03    0.34671E-04   -0.82173E-05  9748   0.166E-02    0.285E-02
RMM:  11    -0.666118975895E+03    0.79717E-05   -0.26183E-05  6285   0.917E-03
  20 F= -.66611898E+03 E0= -.66606898E+03  d E =-.278538E-01
       N       E                     dE             d eps       ncg     rms          rms(c)
DAV:   1    -0.665991516535E+03    0.12747E+00   -0.13804E+01  8976   0.122E+01    0.765E-01
RMM:   2    -0.666137547032E+03   -0.14603E+00   -0.15730E+00 10317   0.271E+00    0.884E-01
RMM:   3    -0.666138632210E+03   -0.10852E-02   -0.10996E-01  9344   0.939E-01    0.830E-01
RMM:   4    -0.666132665889E+03    0.59663E-02   -0.21068E-02 12595   0.289E-01    0.315E-01
RMM:   5    -0.666132357403E+03    0.30849E-03   -0.51765E-03 12017   0.122E-01    0.363E-01
RMM:   6    -0.666131494598E+03    0.86280E-03   -0.35275E-03 11527   0.989E-02    0.228E-01
RMM:   7    -0.666131004798E+03    0.48980E-03   -0.17840E-03 11445   0.730E-02    0.144E-01
RMM:   8    -0.666130830104E+03    0.17469E-03   -0.50210E-04 10583   0.420E-02    0.753E-02
RMM:   9    -0.666130822760E+03    0.73439E-05   -0.24312E-04 10663   0.244E-02    0.716E-02
RMM:  10    -0.666130782386E+03    0.40374E-04   -0.99619E-05  9889   0.181E-02    0.314E-02
RMM:  11    -0.666130772734E+03    0.96526E-05   -0.30417E-05  6735   0.960E-03
  21 F= -.66613077E+03 E0= -.66608165E+03  d E =-.396507E-01
       N       E                     dE             d eps       ncg     rms          rms(c)
DAV:   1    -0.666045020979E+03    0.85761E-01   -0.91548E+00  8736   0.940E+00    0.635E-01
RMM:   2    -0.666158401305E+03   -0.11338E+00   -0.12002E+00 10377   0.227E+00    0.789E-01
RMM:   3    -0.666159023641E+03   -0.62234E-03   -0.90961E-02  9059   0.842E-01    0.652E-01
RMM:   4    -0.666155719992E+03    0.33036E-02   -0.16589E-02 12436   0.236E-01    0.289E-01
RMM:   5    -0.666155203204E+03    0.51679E-03   -0.29258E-03 11716   0.942E-02    0.244E-01
RMM:   6    -0.666154727444E+03    0.47576E-03   -0.23275E-03 11383   0.720E-02    0.178E-01
RMM:   7    -0.666154515864E+03    0.21158E-03   -0.16357E-03 11228   0.693E-02    0.158E-01
RMM:   8    -0.666154309499E+03    0.20637E-03   -0.43681E-04 10443   0.405E-02    0.525E-02
RMM:   9    -0.666154303274E+03    0.62244E-05   -0.18029E-04 10861   0.205E-02    0.566E-02
RMM:  10    -0.666154280613E+03    0.22661E-04   -0.67890E-05  9395   0.154E-02    0.263E-02
RMM:  11    -0.666154277387E+03    0.32262E-05   -0.20683E-05  5832   0.790E-03
  22 F= -.66615428E+03 E0= -.66610544E+03  d E =-.235047E-01
       N       E                     dE             d eps       ncg     rms          rms(c)
DAV:   1    -0.665942046139E+03    0.21223E+00   -0.18950E+01  8736   0.135E+01    0.911E-01
RMM:   2    -0.666176905038E+03   -0.23486E+00   -0.24943E+00 10368   0.327E+00    0.111E+00
RMM:   3    -0.666179548581E+03   -0.26435E-02   -0.18831E-01  9075   0.122E+00    0.945E-01
RMM:   4    -0.666172403656E+03    0.71449E-02   -0.34447E-02 12402   0.341E-01    0.413E-01
RMM:   5    -0.666171405126E+03    0.99853E-03   -0.59834E-03 11987   0.137E-01    0.354E-01
RMM:   6    -0.666170287745E+03    0.11174E-02   -0.55811E-03 11198   0.111E-01    0.247E-01
RMM:   7    -0.666169874050E+03    0.41369E-03   -0.31083E-03 11462   0.967E-02    0.215E-01
RMM:   8    -0.666169488080E+03    0.38597E-03   -0.85359E-04 10859   0.551E-02    0.747E-02
RMM:   9    -0.666169470070E+03    0.18010E-04   -0.38844E-04 11319   0.297E-02    0.817E-02
RMM:  10    -0.666169422234E+03    0.47836E-04   -0.13977E-04 10483   0.217E-02    0.361E-02
RMM:  11    -0.666169417078E+03    0.51552E-05   -0.45148E-05  8318   0.102E-02
  23 F= -.66616942E+03 E0= -.66612037E+03  d E =-.386443E-01
       N       E                     dE             d eps       ncg     rms          rms(c)
DAV:   1    -0.666105110640E+03    0.64312E-01   -0.10537E+01  8736   0.967E+00    0.143E+00
RMM:   2    -0.666310513303E+03   -0.20540E+00   -0.15452E+00 10554   0.263E+00    0.289E+00
RMM:   3    -0.666204243383E+03    0.10627E+00   -0.17537E-01 10071   0.979E-01    0.681E-01
RMM:   4    -0.666200746418E+03    0.34970E-02   -0.30102E-02 12124   0.328E-01    0.692E-01
RMM:   5    -0.666197020354E+03    0.37261E-02   -0.85187E-03 10968   0.181E-01    0.371E-01
RMM:   6    -0.666195350490E+03    0.16699E-02   -0.59126E-03 11501   0.133E-01    0.197E-01
RMM:   7    -0.666195748606E+03   -0.39812E-03   -0.28994E-03 11834   0.104E-01    0.312E-01
RMM:   8    -0.666194853506E+03    0.89510E-03   -0.10534E-03 11306   0.626E-02    0.562E-02
RMM:   9    -0.666194883905E+03   -0.30400E-04   -0.35379E-04 11549   0.272E-02    0.843E-02
RMM:  10    -0.666194840112E+03    0.43793E-04   -0.14578E-04 10850   0.197E-02    0.348E-02
RMM:  11    -0.666194838844E+03    0.12677E-05   -0.57663E-05  8744   0.113E-02
  24 F= -.66619484E+03 E0= -.66614546E+03  d E =-.254218E-01
       N       E                     dE             d eps       ncg     rms          rms(c)
DAV:   1    -0.666180419110E+03    0.14421E-01   -0.20186E+00  9360   0.422E+00    0.626E-01
RMM:   2    -0.666219760382E+03   -0.39341E-01   -0.29621E-01 10479   0.115E+00    0.128E+00
RMM:   3    -0.666199625113E+03    0.20135E-01   -0.33065E-02  9979   0.423E-01    0.312E-01
RMM:   4    -0.666198949905E+03    0.67521E-03   -0.58199E-03 12089   0.146E-01    0.315E-01
RMM:   5    -0.666198157530E+03    0.79238E-03   -0.16608E-03 10688   0.809E-02    0.159E-01
RMM:   6    -0.666197850837E+03    0.30669E-03   -0.11405E-03 11729   0.586E-02    0.883E-02
RMM:   7    -0.666197923576E+03   -0.72739E-04   -0.58669E-04 11837   0.470E-02    0.135E-01
RMM:   8    -0.666197753873E+03    0.16970E-03   -0.21295E-04 10084   0.280E-02    0.253E-02
RMM:   9    -0.666197756474E+03   -0.26011E-05   -0.72024E-05  9604   0.127E-02
  25 F= -.66619776E+03 E0= -.66614829E+03  d E =-.283394E-01
       N       E                     dE             d eps       ncg     rms          rms(c)
DAV:   1    -0.666137070396E+03    0.60683E-01   -0.10008E+01  8736   0.986E+00    0.140E+00
RMM:   2    -0.666335339356E+03   -0.19827E+00   -0.14256E+00 10482   0.261E+00    0.303E+00
RMM:   3    -0.666226904137E+03    0.10844E+00   -0.16220E-01 10389   0.923E-01    0.662E-01
RMM:   4    -0.666223101927E+03    0.38022E-02   -0.28036E-02 12146   0.324E-01    0.666E-01
RMM:   5    -0.666219439350E+03    0.36626E-02   -0.93936E-03 10577   0.196E-01    0.399E-01
RMM:   6    -0.666218235320E+03    0.12040E-02   -0.62827E-03 11250   0.146E-01    0.319E-01
RMM:   7    -0.666217994719E+03    0.24060E-03   -0.31442E-03 11170   0.112E-01    0.288E-01
RMM:   8    -0.666217261290E+03    0.73343E-03   -0.10488E-03 12082   0.578E-02    0.629E-02
RMM:   9    -0.666217285194E+03   -0.23903E-04   -0.34518E-04 11668   0.287E-02    0.804E-02
RMM:  10    -0.666217253596E+03    0.31598E-04   -0.14325E-04 10877   0.186E-02    0.336E-02
RMM:  11    -0.666217264513E+03   -0.10918E-04   -0.56710E-05  8405   0.108E-02    0.237E-02
RMM:  12    -0.666217280797E+03   -0.16283E-04   -0.38937E-05  7972   0.119E-02    0.332E-02
RMM:  13    -0.666217283999E+03   -0.32018E-05   -0.27929E-05  7039   0.115E-02
  26 F= -.66621728E+03 E0= -.66616826E+03  d E =-.195275E-01
       N       E                     dE             d eps       ncg     rms          rms(c)
DAV:   1    -0.666211613396E+03    0.56674E-02   -0.83011E-01  9408   0.284E+00    0.406E-01
RMM:   2    -0.666228229170E+03   -0.16616E-01   -0.11812E-01 10438   0.748E-01    0.871E-01
RMM:   3    -0.666218987885E+03    0.92413E-02   -0.13440E-02 10086   0.267E-01    0.183E-01
RMM:   4    -0.666218717418E+03    0.27047E-03   -0.23445E-03 12104   0.934E-02    0.192E-01
RMM:   5    -0.666218414717E+03    0.30270E-03   -0.76836E-04 10308   0.556E-02    0.111E-01
RMM:   6    -0.666218329759E+03    0.84958E-04   -0.51106E-04 11446   0.414E-02    0.892E-02
RMM:   7    -0.666218309402E+03    0.20357E-04   -0.24348E-04 10107   0.314E-02    0.768E-02
RMM:   8    -0.666218261063E+03    0.48339E-04   -0.82187E-05 10335   0.167E-02    0.187E-02
RMM:   9    -0.666218264500E+03   -0.34372E-05   -0.24070E-05  6102   0.937E-03
  27 F= -.66621826E+03 E0= -.66616940E+03  d E =-.205080E-01
       N       E                     dE             d eps       ncg     rms          rms(c)
DAV:   1    -0.666201165347E+03    0.17096E-01   -0.32699E+00  8784   0.583E+00    0.432E-01
RMM:   2    -0.666233549570E+03   -0.32384E-01   -0.33495E-01 10374   0.133E+00    0.602E-01
RMM:   3    -0.666230484804E+03    0.30648E-02   -0.27832E-02  8888   0.507E-01    0.348E-01
RMM:   4    -0.666229733236E+03    0.75157E-03   -0.66620E-03 12688   0.151E-01    0.232E-01
RMM:   5    -0.666229360710E+03    0.37253E-03   -0.13641E-03 11613   0.666E-02    0.152E-01
RMM:   6    -0.666229108236E+03    0.25247E-03   -0.97925E-04 11657   0.496E-02    0.842E-02
RMM:   7    -0.666229135826E+03   -0.27589E-04   -0.48130E-04 11581   0.406E-02    0.124E-01
RMM:   8    -0.666229006077E+03    0.12975E-03   -0.18163E-04 10207   0.258E-02    0.278E-02
RMM:   9    -0.666229006878E+03   -0.80034E-06   -0.68113E-05  9824   0.130E-02
  28 F= -.66622901E+03 E0= -.66618037E+03  d E =-.107424E-01
       N       E                     dE             d eps       ncg     rms          rms(c)
DAV:   1    -0.666201202102E+03    0.27804E-01   -0.37884E+00  8736   0.628E+00    0.467E-01
RMM:   2    -0.666238997414E+03   -0.37795E-01   -0.38879E-01 10352   0.143E+00    0.665E-01
RMM:   3    -0.666235242439E+03    0.37550E-02   -0.32385E-02  8890   0.544E-01    0.375E-01
RMM:   4    -0.666234395419E+03    0.84702E-03   -0.76077E-03 12633   0.161E-01    0.256E-01
RMM:   5    -0.666233926171E+03    0.46925E-03   -0.15671E-03 11675   0.713E-02    0.156E-01
RMM:   6    -0.666233638024E+03    0.28815E-03   -0.11255E-03 11742   0.529E-02    0.815E-02
RMM:   7    -0.666233678945E+03   -0.40921E-04   -0.52217E-04 11994   0.420E-02    0.129E-01
RMM:   8    -0.666233543309E+03    0.13564E-03   -0.20044E-04 10477   0.267E-02    0.299E-02
RMM:   9    -0.666233545233E+03   -0.19231E-05   -0.77763E-05 10121   0.134E-02
  29 F= -.66623355E+03 E0= -.66618519E+03  d E =-.152807E-01
       N       E                     dE             d eps       ncg     rms          rms(c)
DAV:   1    -0.666229604435E+03    0.39389E-02   -0.24429E+00  8832   0.502E+00    0.769E-01
RMM:   2    -0.666278006405E+03   -0.48402E-01   -0.29324E-01 10561   0.125E+00    0.170E+00
RMM:   3    -0.666242389184E+03    0.35617E-01   -0.39929E-02 10386   0.491E-01    0.347E-01
RMM:   4    -0.666241630320E+03    0.75886E-03   -0.77905E-03 12193   0.167E-01    0.383E-01
RMM:   5    -0.666240371479E+03    0.12588E-02   -0.27185E-03 10813   0.106E-01    0.198E-01
RMM:   6    -0.666240162114E+03    0.20937E-03   -0.18772E-03 11037   0.831E-02    0.187E-01
RMM:   7    -0.666239971367E+03    0.19075E-03   -0.75103E-04 11036   0.562E-02    0.115E-01
RMM:   8    -0.666239864007E+03    0.10736E-03   -0.23299E-04 11534   0.251E-02    0.402E-02
RMM:   9    -0.666239866719E+03   -0.27114E-05   -0.86170E-05 10200   0.157E-02
  30 F= -.66623987E+03 E0= -.66619176E+03  d E =-.632149E-02
       N       E                     dE             d eps       ncg     rms          rms(c)
DAV:   1    -0.666238579557E+03    0.12844E-02   -0.43831E-01  9408   0.213E+00    0.327E-01
RMM:   2    -0.666247364716E+03   -0.87852E-02   -0.52644E-02 10458   0.528E-01    0.716E-01
RMM:   3    -0.666240899022E+03    0.64657E-02   -0.71050E-03 10020   0.208E-01    0.146E-01
RMM:   4    -0.666240792821E+03    0.10620E-03   -0.14004E-03 12098   0.709E-02    0.165E-01
RMM:   5    -0.666240565801E+03    0.22702E-03   -0.48522E-04 10246   0.439E-02    0.811E-02
RMM:   6    -0.666240538793E+03    0.27007E-04   -0.33700E-04 11499   0.351E-02    0.755E-02
RMM:   7    -0.666240510851E+03    0.27942E-04   -0.12999E-04 10046   0.235E-02    0.455E-02
RMM:   8    -0.666240499033E+03    0.11819E-04   -0.44313E-05  7874   0.114E-02    0.185E-02
RMM:   9    -0.666240500036E+03   -0.10026E-05   -0.15636E-05  5519   0.937E-03
  31 F= -.66624050E+03 E0= -.66619250E+03  d E =-.695480E-02
       N       E                     dE             d eps       ncg     rms          rms(c)
DAV:   1    -0.666234049153E+03    0.64499E-02   -0.21588E+00  8736   0.475E+00    0.614E-01
RMM:   2    -0.666268025552E+03   -0.33976E-01   -0.22659E-01 10265   0.110E+00    0.131E+00
RMM:   3    -0.666246027553E+03    0.21998E-01   -0.27720E-02 10144   0.427E-01    0.288E-01
RMM:   4    -0.666245551650E+03    0.47590E-03   -0.59195E-03 12267   0.147E-01    0.325E-01
RMM:   5    -0.666244670503E+03    0.88115E-03   -0.18222E-03 10649   0.881E-02    0.163E-01
RMM:   6    -0.666244443697E+03    0.22681E-03   -0.12581E-03 11518   0.663E-02    0.130E-01
RMM:   7    -0.666244394532E+03    0.49165E-04   -0.56675E-04 10984   0.474E-02    0.115E-01
RMM:   8    -0.666244272779E+03    0.12175E-03   -0.19349E-04 10985   0.245E-02    0.361E-02
RMM:   9    -0.666244268309E+03    0.44700E-05   -0.66603E-05  9652   0.139E-02
  32 F= -.66624427E+03 E0= -.66619618E+03  d E =-.376827E-02
       N       E                     dE             d eps       ncg     rms          rms(c)
DAV:   1    -0.666244162522E+03    0.11026E-03   -0.34656E-02  9504   0.603E-01    0.800E-02
RMM:   2    -0.666244728224E+03   -0.56570E-03   -0.36988E-03 10025   0.140E-01    0.172E-01
RMM:   3    -0.666244355534E+03    0.37269E-03   -0.45944E-04  9053   0.541E-02    0.390E-02
RMM:   4    -0.666244349900E+03    0.56349E-05   -0.98893E-05  9168   0.196E-02
  33 F= -.66624435E+03 E0= -.66619623E+03  d E =-.384986E-02
       N       E                     dE             d eps       ncg     rms          rms(c)
DAV:   1    -0.666243611376E+03    0.74416E-03   -0.13781E-01  9216   0.120E+00    0.164E-01
RMM:   2    -0.666245873607E+03   -0.22622E-02   -0.14831E-02 10129   0.280E-01    0.353E-01
RMM:   3    -0.666244336245E+03    0.15374E-02   -0.18690E-03  9944   0.109E-01    0.848E-02
RMM:   4    -0.666244312857E+03    0.23388E-04   -0.44684E-04 11494   0.404E-02    0.101E-01
RMM:   5    -0.666244221046E+03    0.91811E-04   -0.14832E-04  8812   0.249E-02    0.390E-02
RMM:   6    -0.666244206392E+03    0.14655E-04   -0.10313E-04 10793   0.196E-02    0.358E-02
RMM:   7    -0.666244199789E+03    0.66023E-05   -0.38912E-05  6648   0.134E-02
  34 F= -.66624420E+03 E0= -.66619607E+03  d E =-.369975E-02
       N       E                     dE             d eps       ncg     rms          rms(c)
DAV:   1    -0.666243990934E+03    0.21546E-03   -0.69115E-02  9120   0.851E-01    0.110E-01
RMM:   2    -0.666245087033E+03   -0.10961E-02   -0.72498E-03 10359   0.198E-01    0.240E-01
RMM:   3    -0.666244376012E+03    0.71102E-03   -0.89443E-04 10394   0.762E-02    0.569E-02
RMM:   4    -0.666244367795E+03    0.82172E-05   -0.19968E-04 10827   0.279E-02    0.700E-02
RMM:   5    -0.666244325425E+03    0.42370E-04   -0.60926E-05  7827   0.170E-02    0.274E-02
RMM:   6    -0.666244323387E+03    0.20375E-05   -0.41217E-05  6181   0.139E-02
  35 F= -.66624432E+03 E0= -.66619621E+03  d E =-.382335E-02
       N       E                     dE             d eps       ncg     rms          rms(c)
DAV:   1    -0.666241698785E+03    0.26266E-02   -0.82246E-01  8736   0.274E+00    0.243E-01
RMM:   2    -0.666248920854E+03   -0.72221E-02   -0.64347E-02 10140   0.581E-01    0.441E-01
RMM:   3    -0.666246409315E+03    0.25115E-02   -0.58516E-03  9107   0.223E-01    0.143E-01
RMM:   4    -0.666246299154E+03    0.11016E-03   -0.13451E-03 12181   0.697E-02    0.138E-01
RMM:   5    -0.666246175941E+03    0.12321E-03   -0.41489E-04  9918   0.393E-02    0.850E-02
RMM:   6    -0.666246116948E+03    0.58993E-04   -0.25397E-04 11402   0.277E-02    0.521E-02
RMM:   7    -0.666246117575E+03   -0.62681E-06   -0.11723E-04  9965   0.215E-02    0.560E-02
RMM:   8    -0.666246089849E+03    0.27726E-04   -0.40812E-05  7825   0.126E-02    0.117E-02
RMM:   9    -0.666246092427E+03   -0.25781E-05   -0.12815E-05  5395   0.816E-03
  36 F= -.66624609E+03 E0= -.66619795E+03  d E =-.176904E-02
       N       E                     dE             d eps       ncg     rms          rms(c)
DAV:   1    -0.666245048391E+03    0.10415E-02   -0.24093E-01  8784   0.149E+00    0.132E-01
RMM:   2    -0.666247170848E+03   -0.21225E-02   -0.18879E-02 10126   0.315E-01    0.240E-01
RMM:   3    -0.666246434708E+03    0.73614E-03   -0.17462E-03  9154   0.121E-01    0.778E-02
RMM:   4    -0.666246398044E+03    0.36664E-04   -0.40006E-04 11624   0.377E-02    0.697E-02
RMM:   5    -0.666246368756E+03    0.29288E-04   -0.12589E-04  9307   0.220E-02    0.463E-02
RMM:   6    -0.666246350840E+03    0.17916E-04   -0.73185E-05  9647   0.154E-02    0.256E-02
RMM:   7    -0.666246354340E+03   -0.35005E-05   -0.30674E-05  6131   0.119E-02
  37 F= -.66624635E+03 E0= -.66619819E+03  d E =-.203095E-02
       N       E                     dE             d eps       ncg     rms          rms(c)
DAV:   1    -0.666246122754E+03    0.22809E-03   -0.18288E-01  8832   0.134E+00    0.145E-01
RMM:   2    -0.666248022781E+03   -0.19000E-02   -0.16469E-02 10454   0.300E-01    0.263E-01
RMM:   3    -0.666247204730E+03    0.81805E-03   -0.17039E-03  9628   0.114E-01    0.809E-02
RMM:   4    -0.666247137612E+03    0.67118E-04   -0.40373E-04 11898   0.389E-02    0.711E-02
RMM:   5    -0.666247102607E+03    0.35005E-04   -0.15175E-04  9464   0.251E-02    0.538E-02
RMM:   6    -0.666247075052E+03    0.27556E-04   -0.82175E-05  9327   0.174E-02    0.311E-02
RMM:   7    -0.666247072146E+03    0.29054E-05   -0.30282E-05  6075   0.124E-02
  38 F= -.66624707E+03 E0= -.66619885E+03  d E =-.717806E-03
       N       E                     dE             d eps       ncg     rms          rms(c)
DAV:   1    -0.666246608065E+03    0.46699E-03   -0.12383E-01  8976   0.110E+00    0.121E-01
RMM:   2    -0.666247938969E+03   -0.13309E-02   -0.11239E-02 10357   0.247E-01    0.225E-01
RMM:   3    -0.666247339664E+03    0.59931E-03   -0.11763E-03  9464   0.941E-02    0.676E-02
RMM:   4    -0.666247306367E+03    0.33296E-04   -0.29049E-04 11401   0.325E-02    0.700E-02
RMM:   5    -0.666247265282E+03    0.41086E-04   -0.10644E-04  9033   0.212E-02    0.399E-02
RMM:   6    -0.666247253213E+03    0.12069E-04   -0.61896E-05  9274   0.147E-02    0.326E-02
RMM:   7    -0.666247245897E+03    0.73160E-05   -0.22788E-05  5626   0.112E-02
  39 F= -.66624725E+03 E0= -.66619898E+03  d E =-.891557E-03
       N       E                     dE             d eps       ncg     rms          rms(c)
DAV:   1    -0.666246798141E+03    0.45507E-03   -0.19857E-01  8736   0.145E+00    0.232E-01
RMM:   2    -0.666251003980E+03   -0.42058E-02   -0.25442E-02 10474   0.368E-01    0.502E-01
RMM:   3    -0.666247834482E+03    0.31695E-02   -0.35390E-03 10456   0.144E-01    0.102E-01
RMM:   4    -0.666247741462E+03    0.93021E-04   -0.65050E-04 11993   0.486E-02    0.103E-01
RMM:   5    -0.666247662339E+03    0.79122E-04   -0.23936E-04  9452   0.307E-02    0.668E-02
RMM:   6    -0.666247621011E+03    0.41329E-04   -0.15951E-04 10549   0.249E-02    0.384E-02
RMM:   7    -0.666247625767E+03   -0.47562E-05   -0.60575E-05  7669   0.167E-02
  40 F= -.66624763E+03 E0= -.66619933E+03  d E =-.379870E-03
       N       E                     dE             d eps       ncg     rms          rms(c)
DAV:   1    -0.666247605339E+03    0.15672E-04   -0.15057E-03 10248   0.127E-01    0.232E-02
RMM:   2    -0.666247661949E+03   -0.56610E-04   -0.22760E-04  9937   0.334E-02    0.643E-02
RMM:   3    -0.666247617275E+03    0.44674E-04   -0.37130E-05  6086   0.150E-02    0.140E-02
RMM:   4    -0.666247617200E+03    0.75284E-07   -0.76190E-06  5096   0.728E-03
  41 F= -.66624762E+03 E0= -.66619932E+03  d E =-.371303E-03
       N       E                     dE             d eps       ncg     rms          rms(c)
DAV:   1    -0.666247585063E+03    0.32213E-04   -0.57635E-03  9408   0.247E-01    0.417E-02
RMM:   2    -0.666247711426E+03   -0.12636E-03   -0.74594E-04 10166   0.628E-02    0.867E-02
RMM:   3    -0.666247615359E+03    0.96067E-04   -0.10516E-04  7843   0.248E-02    0.193E-02
RMM:   4    -0.666247613767E+03    0.15917E-05   -0.17605E-05  5414   0.979E-03
  42 F= -.66624761E+03 E0= -.66619932E+03  d E =-.367870E-03
       N       E                     dE             d eps       ncg     rms          rms(c)
DAV:   1    -0.666247405518E+03    0.20984E-03   -0.83336E-02  8736   0.916E-01    0.109E-01
RMM:   2    -0.666248488816E+03   -0.10833E-02   -0.87939E-03 10500   0.221E-01    0.206E-01
RMM:   3    -0.666247974571E+03    0.51425E-03   -0.94868E-04 10104   0.818E-02    0.564E-02
RMM:   4    -0.666247945589E+03    0.28982E-04   -0.19704E-04 11268   0.282E-02    0.573E-02
RMM:   5    -0.666247921140E+03    0.24449E-04   -0.68703E-05  8166   0.175E-02    0.373E-02
RMM:   6    -0.666247909905E+03    0.11236E-04   -0.42452E-05  6991   0.131E-02    0.274E-02
RMM:   7    -0.666247904814E+03    0.50902E-05   -0.15690E-05  5340   0.102E-02
  43 F= -.66624790E+03 E0= -.66619953E+03  d E =-.291047E-03
       N       E                     dE             d eps       ncg     rms          rms(c)
DAV:   1    -0.666247679154E+03    0.23075E-03   -0.47498E-02  8784   0.691E-01    0.854E-02
RMM:   2    -0.666248313197E+03   -0.63404E-03   -0.50579E-03 10449   0.167E-01    0.162E-01
RMM:   3    -0.666247997513E+03    0.31568E-03   -0.55883E-04  9881   0.615E-02    0.467E-02
RMM:   4    -0.666247988110E+03    0.94030E-05   -0.12874E-04 10029   0.232E-02    0.553E-02
RMM:   5    -0.666247960143E+03    0.27967E-04   -0.43806E-05  6630   0.148E-02    0.227E-02
RMM:   6    -0.666247954899E+03    0.52433E-05   -0.23561E-05  5641   0.107E-02
  44 F= -.66624795E+03 E0= -.66619953E+03  d E =-.341132E-03
       N       E                     dE             d eps       ncg     rms          rms(c)
DAV:   1    -0.666247689930E+03    0.27021E-03   -0.61718E-02  8736   0.821E-01    0.939E-02
RMM:   2    -0.666248536976E+03   -0.84705E-03   -0.69475E-03 10341   0.194E-01    0.183E-01
RMM:   3    -0.666248149975E+03    0.38700E-03   -0.70994E-04  9090   0.720E-02    0.537E-02
RMM:   4    -0.666248148081E+03    0.18943E-05   -0.17834E-04 10014   0.270E-02    0.707E-02
RMM:   5    -0.666248100880E+03    0.47201E-04   -0.62532E-05  7270   0.169E-02    0.221E-02
RMM:   6    -0.666248097750E+03    0.31299E-05   -0.33277E-05  6059   0.119E-02
  45 F= -.66624810E+03 E0= -.66619967E+03  d E =-.142851E-03
