HECN                                    
           1
    11.240000    0.000000    0.000000
     0.000000   11.240000    0.000000
     0.000000    0.000000   11.240000
   Zr   Ta   Hf   N    C    W    V 
   7   6   7  13  19   6   6
Direct configuration=     1
   0.00000000  0.00000000  0.00000000
   0.25000000  0.00000000  0.25000000
   0.25000000  0.50000000  0.25000000
   0.50000000  0.50000000  0.00000000
   0.50000000  0.25000000  0.75000004
   0.00000000  0.50000000  0.50000000
   0.50000000  0.75000004  0.75000004
   0.00000000  0.25000000  0.25000000
   0.75000004  0.75000004  0.00000000
   0.00000000  0.25000000  0.75000004
   0.75000004  0.25000000  0.50000000
   0.00000000  0.75000004  0.75000004
   0.25000000  0.50000000  0.75000004
   0.25000000  0.25000000  0.00000000
   0.50000000  0.25000000  0.25000000
   0.75000004  0.00000000  0.25000000
   0.75000004  0.25000000  0.00000000
   0.25000000  0.75000004  0.00000000
   0.25000000  0.25000000  0.50000000
   0.25000000  0.75000004  0.50000000
   0.25000000  0.25000000  0.25000000
   0.25000000  0.00000000  0.00000000
   0.00000000  0.25000000  0.00000000
   0.75000004  0.25000000  0.25000000
   0.75000004  0.00000000  0.00000000
   0.50000000  0.00000000  0.25000000
   0.00000000  0.50000000  0.25000000
   0.50000000  0.75000004  0.00000000
   0.00000000  0.00000000  0.75000004
   0.75000004  0.25000000  0.75000004
   0.75000004  0.00000000  0.50000000
   0.50000000  0.25000000  0.50000000
   0.50000000  0.00000000  0.75000004
   0.00000000  0.00000000  0.25000000
   0.50000000  0.25000000  0.00000000
   0.25000000  0.75000004  0.25000000
   0.25000000  0.50000000  0.00000000
   0.00000000  0.75000004  0.00000000
   0.75000004  0.75000004  0.25000000
   0.75000004  0.50000000  0.00000000
   0.50000000  0.50000000  0.25000000
   0.25000000  0.25000000  0.75000004
   0.25000000  0.00000000  0.50000000
   0.00000000  0.25000000  0.50000000
   0.25000000  0.75000004  0.75000004
   0.25000000  0.50000000  0.50000000
   0.00000000  0.75000004  0.50000000
   0.00000000  0.50000000  0.75000004
   0.75000004  0.75000004  0.75000004
   0.75000004  0.50000000  0.50000000
   0.50000000  0.75000004  0.50000000
   0.50000000  0.50000000  0.75000004
   0.50000000  0.00000000  0.00000000
   0.00000000  0.50000000  0.00000000
   0.50000000  0.75000004  0.25000000
   0.25000000  0.00000000  0.75000004
   0.50000000  0.00000000  0.50000000
   0.75000004  0.00000000  0.75000004
   0.00000000  0.75000004  0.25000000
   0.75000004  0.50000000  0.25000000
   0.00000000  0.00000000  0.50000000
   0.50000000  0.50000000  0.50000000
   0.75000004  0.50000000  0.75000004
   0.75000004  0.75000004  0.50000000
HECN                                    
           1
     8.022071   -0.002640    0.000529
    -0.002640    7.996114    0.001670
     0.000529    0.001670    8.015560
   Zr   Ta   Hf   N    C    W    V 
   7   6   7  13  19   6   6
Direct configuration=     2
  -0.00024643 -0.00207085  0.00020023
   0.24961335 -0.00265671  0.25192852
   0.25074088  0.50254132  0.25000114
   0.50067888  0.49941489  0.00016001
   0.49920088  0.24980436  0.75025044
  -0.00087833  0.50069674  0.50097526
   0.50053891  0.75008953  0.74827602
  -0.00129730  0.24811124  0.25275184
   0.75215370  0.74757336  0.00005591
   0.00146055  0.25177400  0.74701403
   0.75259255  0.25200379  0.50109080
  -0.00067480  0.74840481  0.74917265
   0.25034566  0.50022407  0.75011780
   0.25076892  0.25109509 -0.00264623
   0.50103763  0.25144242  0.24948345
   0.75048841 -0.00242175  0.25102298
   0.74908867  0.25178502 -0.00096614
   0.24881378  0.74909623 -0.00007235
   0.24865546  0.24933382  0.50255650
   0.25006745  0.75069576  0.50010577
   0.25057754  0.24989781  0.24963200
   0.24948505  0.00016925  0.00072467
   0.00011991  0.24914773  0.00001292
   0.74953496  0.24703497  0.24966942
   0.75018287  0.00046806  0.00103815
   0.50112933  0.00157365  0.24999447
   0.00173649  0.49672264  0.24998590
   0.49983417  0.74987966 -0.00064505
  -0.00034209  0.00026094  0.75194447
   0.75033815  0.24812748  0.75025268
   0.74818345  0.00301814  0.49922933
   0.50005425  0.24832903  0.49914040
   0.50025994  0.00018831  0.75001389
  -0.00110402  0.00341270  0.24829577
   0.50017563  0.24860937  0.00100044
   0.25230347  0.75018728  0.24958928
   0.24909836  0.49985013 -0.00066703
  -0.00085077  0.74958690 -0.00257982
   0.74756908  0.75223713  0.24726349
   0.75123367  0.50059701  0.00032077
   0.49905505  0.50003542  0.24903425
   0.24880742  0.25034475  0.75034551
   0.25241996  0.00035885  0.50104316
  -0.00095694  0.25091678  0.50008974
   0.24888336  0.74950373  0.75039888
   0.24865027  0.49957528  0.50072934
   0.00153080  0.74886146  0.50321506
   0.00204855  0.49979406  0.75140807
   0.75142553  0.75267381  0.75264126
   0.75101180  0.49675987  0.49971356
   0.49862526  0.75270594  0.49866723
   0.49749457  0.49987095  0.75107249
   0.50073973  0.00202629 -0.00042921
  -0.00086928  0.50240561 -0.00268169
   0.50043189  0.74781847  0.25291862
   0.25025889 -0.00013056  0.74714579
   0.49806707 -0.00279877  0.50043987
   0.74963983 -0.00266220  0.74944538
  -0.00025815  0.75168563  0.25016813
   0.74835566  0.50231670  0.25024677
   0.00132864 -0.00020887  0.49901743
   0.50082804  0.50169517  0.50000260
   0.74985547  0.50190037  0.74982300
   0.74995897  0.74831659  0.49985064
HECN                                    
           1
     9.090714   -0.001764    0.000353
    -0.001764    9.073377    0.001116
     0.000353    0.001116    9.086365
   Zr   Ta   Hf   N    C    W    V 
   7   6   7  13  19   6   6
Direct configuration=     3
  -0.00013144 -0.00110409  0.00010678
   0.24979372 -0.00141627  0.25103017
   0.25039576  0.50135488  0.25000088
   0.50036309  0.49968794  0.00008546
   0.49957275  0.24989583  0.75013379
  -0.00046972  0.50037172  0.50052114
   0.50028809  0.75004750  0.74907889
  -0.00069329  0.24899341  0.25147013
   0.75115197  0.74870584  0.00002970
   0.00078059  0.25094536  0.74840478
   0.75138597  0.25106810  0.50058311
  -0.00036059  0.74914951  0.74955778
   0.25018479  0.50011943  0.75006300
   0.25041089  0.25058351 -0.00141380
   0.50055458  0.25076887  0.24972417
   0.75026157 -0.00129122  0.25054638
   0.74951243  0.25095180 -0.00051608
   0.24936587  0.74951832 -0.00003878
   0.24928126  0.24964526  0.50136588
   0.25003596  0.75037099  0.50005658
   0.25030881  0.24994539  0.24980338
   0.24972466  0.00009039  0.00038721
   0.00006425  0.24954557  0.00000682
   0.74975181  0.24841913  0.24982306
   0.75009776  0.00024964  0.00055476
   0.50060361  0.00083887  0.24999723
   0.00092900  0.49825229  0.24999220
   0.49991133  0.74993582 -0.00034468
  -0.00018290  0.00013937  0.75103900
   0.75018112  0.24900157  0.75013486
   0.74902823  0.00160944  0.49958846
   0.50002924  0.24910897  0.49954054
   0.50013896  0.00010037  0.75000747
  -0.00059089  0.00181961  0.24908970
   0.50009415  0.24925861  0.00053442
   0.25123162  0.75009948  0.24978063
   0.24951790  0.49992017 -0.00035645
  -0.00045492  0.74977964 -0.00137851
   0.74869979  0.75119294  0.24853797
   0.75065958  0.50031816  0.00017149
   0.49949470  0.50001894  0.24948396
   0.24936229  0.25018403  0.75018463
   0.25129392  0.00019106  0.50055749
  -0.00051181  0.25048897  0.50004801
   0.24940303  0.74973562  0.75021306
   0.24927839  0.49977382  0.50038962
   0.00081879  0.74939304  0.50171780
   0.00109543  0.49989002  0.75075242
   0.75076192  0.75142569  0.75141160
   0.75054151  0.49827222  0.49984667
   0.49926447  0.75144287  0.49928810
   0.49866041  0.49993168  0.75057298
   0.50039521  0.00108023 -0.00022912
  -0.00046525  0.50128251 -0.00143267
   0.50023136  0.74883707  0.25155927
   0.25013836 -0.00006993  0.74847496
   0.49896691 -0.00149193  0.50023470
   0.74980783 -0.00141944  0.74970340
  -0.00013829  0.75089883  0.25008999
   0.74912045  0.50123551  0.25013203
   0.00071042 -0.00011167  0.49947502
   0.50044249  0.50090371  0.50000158
   0.74992244  0.50101326  0.74990562
   0.74997833  0.74910244  0.49992003
HECN                                    
           1
     9.008151   -0.001831    0.000367
    -0.001831    8.990148    0.001158
     0.000367    0.001158    9.003635
   Zr   Ta   Hf   N    C    W    V 
   7   6   7  13  19   6   6
Direct configuration=     4
  -0.00013927 -0.00116991  0.00011314
   0.24978144 -0.00150072  0.25109139
   0.25041927  0.50143566  0.25000090
   0.50038462  0.49966934  0.00009054
   0.49954740  0.24988961  0.75014174
  -0.00049758  0.50039386  0.50055209
   0.50030518  0.75005036  0.74902417
  -0.00073446  0.24893336  0.25155748
   0.75122028  0.74862873  0.00003148
   0.00082694  0.25100176  0.74831000
   0.75146823  0.25113180  0.50061772
  -0.00038201  0.74909881  0.74953152
   0.25019576  0.50012655  0.75006673
   0.25043529  0.25061834 -0.00149779
   0.50058751  0.25081472  0.24970777
   0.75027705 -0.00136819  0.25057886
   0.74948353  0.25100853 -0.00054675
   0.24932823  0.74948958 -0.00004107
   0.24923860  0.24962406  0.50144702
   0.25003811  0.75039310  0.50005994
   0.25032713  0.24994215  0.24979170
   0.24970832  0.00009576  0.00041021
   0.00006805  0.24951848  0.00000724
   0.74973704  0.24832489  0.24981258
   0.75010356  0.00026451  0.00058770
   0.50063944  0.00088890  0.24999705
   0.00098407  0.49814813  0.24999177
   0.49990607  0.74993200 -0.00036515
  -0.00019375  0.00014766  0.75110071
   0.75019184  0.24894206  0.75014289
   0.74897062  0.00170536  0.49956399
   0.50003095  0.24905586  0.49951327
   0.50014721  0.00010635  0.75000791
  -0.00062589  0.00192808  0.24903560
   0.50009972  0.24921440  0.00056618
   0.25130469  0.75010545  0.24976759
   0.24948930  0.49991540 -0.00037762
  -0.00048191  0.74976651 -0.00146039
   0.74862269  0.75126403  0.24845112
   0.75069872  0.50033714  0.00018167
   0.49946473  0.50002006  0.24945331
   0.24932446  0.25019498  0.75019559
   0.25137069  0.00020248  0.50059059
  -0.00054217  0.25051810  0.50005085
   0.24936760  0.74971984  0.75022573
   0.24923557  0.49976031  0.50041277
   0.00086734  0.74935685  0.50181985
   0.00116041  0.49988348  0.75079711
   0.75080715  0.75151068  0.75149541
   0.75057359  0.49816925  0.49983759
   0.49922088  0.75152887  0.49924579
   0.49858092  0.49992756  0.75060702
   0.50041868  0.00114464 -0.00024275
  -0.00049281  0.50135898 -0.00151779
   0.50024504  0.74876773  0.25165191
   0.25014657 -0.00007407  0.74838437
   0.49890558 -0.00158090  0.50024867
   0.74979639 -0.00150406  0.74968581
  -0.00014647  0.75095240  0.25009532
   0.74906830  0.50130913  0.25013986
   0.00075257 -0.00011829  0.49944383
   0.50046877  0.50095760  0.50000165
   0.74991787  0.50107366  0.74990000
   0.74997702  0.74904894  0.49991529
HECN                                    
           1
     8.960885   -0.001870    0.000375
    -0.001870    8.942500    0.001183
     0.000375    0.001183    8.956273
   Zr   Ta   Hf   N    C    W    V 
   7   6   7  13  19   6   6
Direct configuration=     5
  -0.00014380 -0.00120795  0.00011682
   0.24977434 -0.00154952  0.25112676
   0.25043286  0.50148233  0.25000092
   0.50039706  0.49965860  0.00009347
   0.49953275  0.24988601  0.75014633
  -0.00051367  0.50040665  0.50056997
   0.50031506  0.75005201  0.74899256
  -0.00075825  0.24889866  0.25160795
   0.75125974  0.74858417  0.00003251
   0.00085371  0.25103435  0.74825524
   0.75151575  0.25116861  0.50063771
  -0.00039438  0.74906951  0.74951636
   0.25020209  0.50013067  0.75006889
   0.25044939  0.25063846 -0.00154632
   0.50060653  0.25084122  0.24969829
   0.75028599 -0.00141267  0.25059762
   0.74946684  0.25104131 -0.00056447
   0.24930649  0.74947298 -0.00004240
   0.24921396  0.24961182  0.50149391
   0.25003935  0.75040588  0.50006187
   0.25033772  0.24994027  0.24978495
   0.24969888  0.00009887  0.00042349
   0.00007024  0.24950283  0.00000748
   0.74972850  0.24827043  0.24980653
   0.75010691  0.00027310  0.00060674
   0.50066015  0.00091780  0.24999694
   0.00101588  0.49808795  0.24999151
   0.49990303  0.74992979 -0.00037698
  -0.00020002  0.00015244  0.75113637
   0.75019803  0.24890767  0.75014752
   0.74893734  0.00176078  0.49954985
   0.50003194  0.24902518  0.49949751
   0.50015197  0.00010981  0.75000816
  -0.00064611  0.00199075  0.24900434
   0.50010293  0.24918886  0.00058453
   0.25134691  0.75010890  0.24976006
   0.24947277  0.49991265 -0.00038985
  -0.00049750  0.74975893 -0.00150770
   0.74857814  0.75130512  0.24840093
   0.75072133  0.50034811  0.00018755
   0.49944741  0.50002071  0.24943560
   0.24930260  0.25020130  0.75020193
   0.25141505  0.00020908  0.50060972
  -0.00055970  0.25053494  0.50005250
   0.24934713  0.74971072  0.75023304
   0.24921083  0.49975251  0.50042615
   0.00089539  0.74933594  0.50187880
   0.00119795  0.49987970  0.75082292
   0.75083329  0.75155978  0.75154384
   0.75059212  0.49810975  0.49983234
   0.49919569  0.75157856  0.49922134
   0.49853500  0.49992518  0.75062669
   0.50043225  0.00118186 -0.00025062
  -0.00050873  0.50140316 -0.00156697
   0.50025295  0.74872766  0.25170544
   0.25015132 -0.00007646  0.74833203
   0.49887014 -0.00163230  0.50025675
   0.74978978 -0.00155295  0.74967565
  -0.00015119  0.75098335  0.25009840
   0.74903817  0.50135167  0.25014438
   0.00077692 -0.00012212  0.49942581
   0.50048395  0.50098873  0.50000170
   0.74991523  0.50110856  0.74989675
   0.74997626  0.74901802  0.49991256
HECN                                    
           1
     8.905650    0.009133   -0.000761
     0.009131    8.985622    0.008854
    -0.000757    0.008879    8.902893
   Zr   Ta   Hf   N    C    W    V 
   7   6   7  13  19   6   6
Direct configuration=     6
  -0.00049328 -0.00440677  0.00084175
   0.25000452 -0.00351836  0.25334130
   0.25081169  0.50377422  0.25088528
   0.50369751  0.49884388  0.00002862
   0.50097831  0.24820598  0.74730888
  -0.00462780  0.50355165  0.50011516
   0.50337584  0.75073557  0.74515331
  -0.00401845  0.24589679  0.25630717
   0.75504511  0.74373233  0.00130714
   0.00010305  0.25297063  0.74395057
   0.75418520  0.25599705  0.50248450
  -0.00342904  0.74730451  0.74712513
   0.25199214  0.49960021  0.74984152
   0.24877401  0.24828943 -0.00305956
   0.50281308  0.25374532  0.25204636
   0.75092752 -0.00608613  0.25428930
   0.75048939  0.25318231 -0.00231964
   0.24803726  0.75078390  0.00018444
   0.24921639  0.24798782  0.50323095
   0.24954994  0.75191103  0.49987019
   0.24957918  0.25003032  0.24933151
   0.25255967 -0.00034918 -0.00186098
   0.00039400  0.25191064 -0.00003554
   0.75042739  0.25015324  0.25087986
   0.74707198 -0.00086242 -0.00019991
   0.50310915  0.00023104  0.25033546
  -0.00443015  0.49812888  0.24650276
   0.50137492  0.75286740  0.00209751
  -0.00067838  0.00012474  0.74539443
   0.75303081  0.25069941  0.74894419
   0.75054439  0.00032791  0.50139275
   0.50237980  0.25072756  0.49750241
   0.50020367 -0.00000176  0.74978290
  -0.00302292  0.00076812  0.25536144
   0.50046083  0.24485846  0.00243938
   0.25115966  0.74998821  0.24967634
   0.24413717  0.50073363 -0.00253410
  -0.00306199  0.74547073  0.00043800
   0.74974411  0.74551949  0.25128180
   0.75642377  0.50354307  0.00101441
   0.50664488  0.50413514  0.25691118
   0.24588763  0.24992887  0.75051721
   0.25035812 -0.00006412  0.50605018
  -0.00342513  0.24398004  0.50058838
   0.24575152  0.75027955  0.75042849
   0.25502699  0.49981824  0.50289648
  -0.00545309  0.75663137  0.50078310
  -0.00240769  0.49982184  0.75550627
   0.75467626  0.75015213  0.74860353
   0.74328110  0.50044206  0.49911830
   0.50543497  0.75006896  0.49394334
   0.50093319  0.50014868  0.74337528
   0.50207122  0.00596115 -0.00031657
  -0.00383897  0.50515312 -0.00536824
   0.50150712  0.74351533  0.25781189
   0.24925896  0.00047265  0.74404005
   0.49488430 -0.00697092  0.50012290
   0.75011603 -0.00685131  0.74747464
  -0.00103764  0.75523519  0.25062292
   0.74501987  0.50647435  0.25141424
   0.00349043 -0.00038100  0.49708529
   0.50382459  0.50481465  0.49995632
   0.74854083  0.50549864  0.74950129
   0.75061573  0.74436520  0.49825720
HECN                                    
           1
     8.879365    0.014370   -0.001301
     0.014366    9.006143    0.012505
    -0.001296    0.012542    8.877490
   Zr   Ta   Hf   N    C    W    V 
   7   6   7  13  19   6   6
Direct configuration=     7
  -0.00065870 -0.00592184  0.00119008
   0.25011602 -0.00445185  0.25440230
   0.25099180  0.50485908  0.25130775
   0.50527836  0.49845613 -0.00000190
   0.50167131  0.24741062  0.74595126
  -0.00659966  0.50504373  0.49989589
   0.50484081  0.75105909  0.74331523
  -0.00557750  0.24447508  0.25855790
   0.75686060  0.74143175  0.00191957
  -0.00025779  0.25388986  0.74188893
   0.75546072  0.25828148  0.50336682
  -0.00488125  0.74647136  0.74598089
   0.25284958  0.49934803  0.74973299
   0.24797306  0.24717853 -0.00378315
   0.50386811  0.25511845  0.25316942
   0.75123767 -0.00830138  0.25605860
   0.75097767  0.25419641 -0.00316072
   0.24742876  0.75140541  0.00029243
   0.24921861  0.24721797  0.50406320
   0.24931470  0.75262424  0.49977778
   0.24921588  0.25007359  0.24911435
   0.25392965 -0.00056211 -0.00295429
   0.00054762  0.25305081 -0.00005710
   0.75076100  0.25104409  0.25139299
   0.74561935 -0.00139810 -0.00058581
   0.50428225 -0.00009578  0.25049796
  -0.00703815  0.49815289  0.24483221
   0.50207814  0.75425679  0.00328103
  -0.00090777  0.00011425  0.74264553
   0.75438612  0.25154682  0.74836755
   0.75131486 -0.00035240  0.50227570
   0.50350292  0.25153325  0.49654673
   0.50022848 -0.00005453  0.74967512
  -0.00415992  0.00018786  0.25840519
   0.50063486  0.24280660  0.00332916
   0.25107006  0.74993120  0.24963630
   0.24158167  0.50112646 -0.00356130
  -0.00428733  0.74344054  0.00137106
   0.75030598  0.74277755  0.25266342
   0.75915248  0.50505253  0.00140931
   0.51008933  0.50607646  0.26048879
   0.24425260  0.24980172  0.75066804
   0.24985251 -0.00019513  0.50865478
  -0.00479334  0.24087710  0.50084742
   0.24402949  0.75055097  0.75052161
   0.25781210  0.49984494  0.50407945
  -0.00849732  0.76009067  0.50025518
  -0.00413389  0.49979462  0.75774818
   0.75651707  0.74948442  0.74719671
   0.73977891  0.50155123  0.49877507
   0.50842312  0.74935253  0.49141756
   0.50208095  0.50025610  0.73990381
   0.50285321  0.00822369 -0.00034999
  -0.00543604  0.50693262 -0.00718978
   0.50211109  0.74104353  0.26073749
   0.24883109  0.00073500  0.74198503
   0.49297885 -0.00949691  0.50006076
   0.75027522 -0.00935991  0.74642312
  -0.00146457  0.75724917  0.25087224
   0.74309284  0.50890229  0.25201983
   0.00478976 -0.00050423  0.49596506
   0.50542196  0.50662467  0.49993324
   0.74788013  0.50757875  0.74931009
   0.75092455  0.74216192  0.49746666
HECN                                    
           1
     8.994398    0.013176   -0.001132
     0.013273    9.047984    0.006925
    -0.001117    0.006916    9.009314
   Zr   Ta   Hf   N    C    W    V 
   7   6   7  13  19   6   6
Direct configuration=     8
  -0.00317598 -0.00862699  0.00134942
   0.25064415 -0.00293903  0.25615805
   0.25102402  0.50340535  0.25221238
   0.50587836  0.49650085 -0.00101695
   0.50202346  0.24539256  0.74553741
  -0.00844027  0.50625663  0.49982440
   0.50628417  0.75216764  0.74147546
  -0.00681165  0.24026213  0.26322878
   0.75709190  0.73966845  0.00442391
  -0.00157018  0.25514907  0.73914880
   0.75385601  0.26309159  0.50442276
  -0.00527710  0.74480948  0.74545032
   0.25435263  0.49882536  0.74790541
   0.24725399  0.24634737 -0.00183589
   0.50530461  0.25801917  0.25481326
   0.74968111 -0.01296369  0.25957520
   0.75333466  0.25514696 -0.00442304
   0.24775684  0.75146593 -0.00053794
   0.24857787  0.24771623  0.50180375
   0.24746912  0.75197463  0.50106697
   0.24805844  0.25029151  0.24909818
   0.25607014 -0.00108395 -0.00353192
   0.00028479  0.25347507  0.00106699
   0.75215117  0.25091342  0.25213920
   0.74399804 -0.00219786 -0.00043000
   0.50548356 -0.00035262  0.25002973
  -0.01040846  0.49607002  0.24334894
   0.50389409  0.75761481  0.00446709
  -0.00130503  0.00074724  0.73916978
   0.75599563  0.25170813  0.74827064
   0.75117541 -0.00017796  0.50462547
   0.50544433  0.25074402  0.49555287
   0.49998177 -0.00060298  0.74988160
  -0.00333527 -0.00128697  0.26132763
   0.50131908  0.24305196  0.00337824
   0.25088980  0.74984442  0.24991560
   0.24053428  0.50126760 -0.00401808
  -0.00294992  0.74282353  0.00313712
   0.75258041  0.73902739  0.25460529
   0.75857168  0.50358493  0.00237202
   0.51235440  0.50638237  0.26269371
   0.24466338  0.24995080  0.75066147
   0.24766308 -0.00095343  0.50820898
  -0.00353891  0.23982410  0.50081415
   0.24375829  0.75109997  0.75020735
   0.25954733  0.50027309  0.50461666
  -0.01215581  0.76363669  0.49752646
  -0.00680099  0.49985091  0.75601443
   0.75552667  0.74786011  0.74502386
   0.73750643  0.50355407  0.49852846
   0.51113998  0.74811147  0.49214854
   0.50490048  0.50026602  0.73683259
   0.50389185  0.01315329 -0.00168047
  -0.00544945  0.51092342 -0.00963220
   0.50464788  0.73524806  0.26305302
   0.24662899  0.00186951  0.74158121
   0.48991869 -0.01374186  0.50052114
   0.75066475 -0.01532978  0.74390836
  -0.00260967  0.76417141  0.25313522
   0.73933537  0.51569912  0.25414502
   0.00843849 -0.00162360  0.49356122
   0.50860550  0.51341140  0.50023959
   0.74559291  0.51426251  0.74823705
   0.75207940  0.73496960  0.49466602
HECN                                    
           1
     8.961641    0.013516   -0.001180
     0.013584    9.036070    0.008514
    -0.001168    0.008518    8.971776
   Zr   Ta   Hf   N    C    W    V 
   7   6   7  13  19   6   6
Direct configuration=     9
  -0.00246824 -0.00786016  0.00130518
   0.25049564 -0.00336816  0.25566513
   0.25101502  0.50381723  0.25195881
   0.50570975  0.49705521 -0.00073179
   0.50192454  0.24596462  0.74565389
  -0.00792289  0.50591294  0.49984424
   0.50587836  0.75185371  0.74199149
  -0.00646453  0.24145546  0.26191892
   0.75702696  0.74016778  0.00372153
  -0.00120131  0.25479271  0.73991742
   0.75430695  0.26172809  0.50412561
  -0.00516576  0.74528064  0.74559948
   0.25393011  0.49897377  0.74841831
   0.24745617  0.24658264 -0.00238213
   0.50490069  0.25719663  0.25435151
   0.75011887 -0.01164278  0.25858929
   0.75267203  0.25487766 -0.00406900
   0.24766460  0.75144891 -0.00030496
   0.24875796  0.24757544  0.50243764
   0.24798797  0.75215860  0.50070534
   0.24838380  0.25022980  0.24910267
   0.25546843 -0.00093603 -0.00336974
   0.00035866  0.25335462  0.00075150
   0.75176038  0.25095027  0.25192985
   0.74445385 -0.00197113 -0.00047359
   0.50514586 -0.00027979  0.25016116
  -0.00946095  0.49666080  0.24376548
   0.50338349  0.75666272  0.00413371
  -0.00119340  0.00056847  0.74014492
   0.75554317  0.25166236  0.74829781
   0.75121462 -0.00022782  0.50396612
   0.50489860  0.25096781  0.49583189
   0.50005115 -0.00044755  0.74982376
  -0.00356702 -0.00086951  0.26050789
   0.50112673  0.24298237  0.00336443
   0.25094048  0.74986898  0.24983725
   0.24082871  0.50122772 -0.00388994
  -0.00332585  0.74299804  0.00264170
   0.75194118  0.74008989  0.25406110
   0.75873501  0.50400075  0.00210215
   0.51171766  0.50629516  0.26207499
   0.24454790  0.24990853  0.75066329
   0.24827859 -0.00073832  0.50833419
  -0.00389151  0.24012252  0.50082368
   0.24383450  0.75094443  0.75029543
   0.25905952  0.50015157  0.50446586
  -0.01112750  0.76263226  0.49829146
  -0.00605124  0.49983539  0.75650088
   0.75580513  0.74832094  0.74563382
   0.73814518  0.50298652  0.49859729
   0.51037628  0.74846299  0.49194367
   0.50410785  0.50026364  0.73769436
   0.50359969  0.01175624 -0.00130802
  -0.00544584  0.50979271 -0.00894759
   0.50393498  0.73689020  0.26240434
   0.24724799  0.00154811  0.74169430
   0.49077910 -0.01253863  0.50039269
   0.75055545 -0.01363725  0.74461504
  -0.00228800  0.76220901  0.25249901
   0.74039142  0.51377241  0.25354748
   0.00741280 -0.00130605  0.49423593
   0.50771032  0.51148758  0.50015244
   0.74623563  0.51236836  0.74853694
   0.75175500  0.73700864  0.49545314
HECN                                    
           1
     8.935931    0.002397   -0.000917
     0.002410    8.984974   -0.001812
    -0.000898   -0.001764    8.952717
   Zr   Ta   Hf   N    C    W    V 
   7   6   7  13  19   6   6
Direct configuration=    10
  -0.00541798 -0.00953915  0.00113152
   0.25166948 -0.00199398  0.25619211
   0.25041208  0.50211259  0.25224808
   0.50455174  0.49546930 -0.00213585
   0.50142998  0.24444493  0.74598208
  -0.00851259  0.50608006  0.49952584
   0.50563012  0.75274961  0.74201510
  -0.00736851  0.23775885  0.26553136
   0.75629400  0.74021655  0.00652499
  -0.00080879  0.25585498  0.73773518
   0.75233372  0.26605276  0.50440030
  -0.00485054  0.74391548  0.74595033
   0.25512491  0.49778183  0.74669426
   0.24648085  0.24719134 -0.00087000
   0.50699334  0.25896694  0.25515080
   0.74810116 -0.01463442  0.26202694
   0.75521602  0.25494088 -0.00467143
   0.24891468  0.75071164 -0.00062102
   0.24882345  0.24876900  0.50097288
   0.24602510  0.75095075  0.50142602
   0.24757585  0.25038608  0.24940331
   0.25675745 -0.00109850 -0.00289344
   0.00000053  0.25252619  0.00204335
   0.75295649  0.24942327  0.25271067
   0.74352409 -0.00253360  0.00021032
   0.50544162 -0.00027121  0.24962798
  -0.01059554  0.49317716  0.24335246
   0.50499630  0.75948610  0.00474139
  -0.00186598  0.00148693  0.73902578
   0.75599822  0.25051102  0.74867695
   0.74964123  0.00091389  0.50615437
   0.50625096  0.24855341  0.49573165
   0.50009408 -0.00105798  0.75013224
  -0.00257915 -0.00234136  0.26021505
   0.50194248  0.24544943  0.00299114
   0.25158509  0.74980225  0.25022349
   0.24177948  0.50094178 -0.00365997
  -0.00130287  0.74401865  0.00350198
   0.75390912  0.73847886  0.25449276
   0.75648413  0.50144671  0.00290254
   0.51024124  0.50414167  0.26063865
   0.24601433  0.25021332  0.75043718
   0.24651952 -0.00132997  0.50617197
  -0.00266995  0.24188119  0.50107427
   0.24473221  0.75142629  0.74996464
   0.25818342  0.50051457  0.50388617
  -0.01194756  0.76331545  0.49649770
  -0.00723569  0.49992410  0.75305510
   0.75370758  0.74691333  0.74495376
   0.73993190  0.50414211  0.49858387
   0.51030447  0.74799166  0.49456897
   0.50591708  0.50022673  0.73781170
   0.50480549  0.01545427 -0.00308731
  -0.00413512  0.51251906 -0.01129611
   0.50620428  0.73313269  0.26276737
   0.24420124  0.00345086  0.74172167
   0.48801077 -0.01540171  0.50101483
   0.75098765 -0.02000625  0.74250817
  -0.00310240  0.76948388  0.25561661
   0.73765790  0.51926344  0.25581345
   0.01171022 -0.00292284  0.49229358
   0.50978949  0.51882221  0.50064283
   0.74388105  0.52026719  0.74722569
   0.75265577  0.72947840  0.49234240
HECN                                    
           1
     8.937061    0.002886   -0.000928
     0.002901    8.987220   -0.001358
    -0.000910   -0.001312    8.953555
   Zr   Ta   Hf   N    C    W    V 
   7   6   7  13  19   6   6
Direct configuration=    11
  -0.00528789 -0.00946478  0.00113925
   0.25161768 -0.00205480  0.25616883
   0.25043874  0.50218795  0.25223543
   0.50460286  0.49553952 -0.00207394
   0.50145186  0.24451211  0.74596770
  -0.00848661  0.50607273  0.49953985
   0.50564101  0.75271002  0.74201402
  -0.00732846  0.23792208  0.26537246
   0.75632630  0.74021429  0.00640152
  -0.00082615  0.25580812  0.73783123
   0.75242044  0.26586173  0.50438798
  -0.00486436  0.74397578  0.74593495
   0.25507232  0.49783453  0.74677024
   0.24652380  0.24716442 -0.00093662
   0.50690102  0.25888855  0.25511552
   0.74819025 -0.01450226  0.26187570
   0.75510390  0.25493797 -0.00464490
   0.24885962  0.75074417 -0.00060706
   0.24882049  0.24871632  0.50103732
   0.24611168  0.75100420  0.50139434
   0.24761145  0.25037920  0.24939006
   0.25670065 -0.00109142 -0.00291441
   0.00001636  0.25256276  0.00198650
   0.75290386  0.24949065  0.25267636
   0.74356510 -0.00250873  0.00018023
   0.50542859 -0.00027158  0.24965146
  -0.01054534  0.49333120  0.24337082
   0.50492507  0.75936120  0.00471449
  -0.00183639  0.00144643  0.73907502
   0.75597823  0.25056186  0.74866031
   0.74971051  0.00086341  0.50605795
   0.50619149  0.24866005  0.49573619
   0.50009222 -0.00103102  0.75011868
  -0.00262261 -0.00227635  0.26022802
   0.50190639  0.24534037  0.00300746
   0.25155668  0.74980514  0.25020648
   0.24173760  0.50095436 -0.00367009
  -0.00139208  0.74397339  0.00346404
   0.75382248  0.73854993  0.25447383
   0.75658347  0.50155966  0.00286741
   0.51030642  0.50423700  0.26070201
   0.24594968  0.25019979  0.75044712
   0.24659708 -0.00130362  0.50626722
  -0.00272388  0.24180338  0.50106315
   0.24469262  0.75140496  0.74997919
   0.25822201  0.50049860  0.50391168
  -0.01191146  0.76328539  0.49657666
  -0.00718350  0.49992041  0.75320684
   0.75380009  0.74697569  0.74498378
   0.73985309  0.50409095  0.49858440
   0.51030766  0.74801236  0.49445338
   0.50583735  0.50022825  0.73780653
   0.50475214  0.01529086 -0.00300914
  -0.00419304  0.51239862 -0.01119282
   0.50610448  0.73329861  0.26275157
   0.24433541  0.00336693  0.74172036
   0.48813294 -0.01527505  0.50098758
   0.75096895 -0.01972469  0.74260127
  -0.00306690  0.76916225  0.25547895
   0.73777807  0.51902080  0.25571338
   0.01152091 -0.00285152  0.49237921
   0.50969746  0.51849792  0.50062087
   0.74398439  0.51991830  0.74728303
   0.75261648  0.72981131  0.49247977
HECN                                    
           1
     8.918642   -0.006250   -0.002131
    -0.006317    9.062793   -0.007681
    -0.002113   -0.007625    8.926055
   Zr   Ta   Hf   N    C    W    V 
   7   6   7  13  19   6   6
Direct configuration=    12
  -0.00663867 -0.00903775  0.00042867
   0.25340645 -0.00224104  0.25439698
   0.24860837  0.50194694  0.25169950