  64  64   0   0
  0.1088556E+02  0.8838912E-09  0.8882938E-09  0.8873773E-09  0.5000000E-15
  1.000000000000000E-004
  CAR 
 HECN                                    
     15.68501537    -59.59573376  301      8.82971045      1.00000000
    -59.596  0.0000E+00  0.0000E+00
    -59.345  0.0000E+00  0.0000E+00
    -59.094  0.0000E+00  0.0000E+00
    -58.843  0.0000E+00  0.0000E+00
    -58.592  0.0000E+00  0.0000E+00
    -58.341  0.0000E+00  0.0000E+00
    -58.090  0.0000E+00  0.0000E+00
    -57.839  0.0000E+00  0.0000E+00
    -57.588  0.0000E+00  0.0000E+00
    -57.337  0.0000E+00  0.0000E+00
    -57.086  0.0000E+00  0.0000E+00
    -56.835  0.0000E+00  0.0000E+00
    -56.585  0.2779E-09  0.6974E-10
    -56.334  0.1303E-02  0.3271E-03
    -56.083  0.2118E+00  0.5347E-01
    -55.832  0.3362E+00  0.1378E+00
    -55.581  0.8601E-02  0.1400E+00
    -55.330  0.2559E-07  0.1400E+00
    -55.079  0.0000E+00  0.1400E+00
    -54.828  0.0000E+00  0.1400E+00
    -54.577  0.0000E+00  0.1400E+00
    -54.326  0.0000E+00  0.1400E+00
    -54.075  0.0000E+00  0.1400E+00
    -53.824  0.0000E+00  0.1400E+00
    -53.573  0.0000E+00  0.1400E+00
    -53.322  0.0000E+00  0.1400E+00
    -53.071  0.0000E+00  0.1400E+00
    -52.820  0.0000E+00  0.1400E+00
    -52.570  0.0000E+00  0.1400E+00
    -52.319  0.0000E+00  0.1400E+00
    -52.068  0.0000E+00  0.1400E+00
    -51.817  0.0000E+00  0.1400E+00
    -51.566  0.0000E+00  0.1400E+00
    -51.315  0.0000E+00  0.1400E+00
    -51.064  0.0000E+00  0.1400E+00
    -50.813  0.0000E+00  0.1400E+00
    -50.562  0.0000E+00  0.1400E+00
    -50.311  0.0000E+00  0.1400E+00
    -50.060  0.0000E+00  0.1400E+00
    -49.809  0.0000E+00  0.1400E+00
    -49.558  0.0000E+00  0.1400E+00
    -49.307  0.0000E+00  0.1400E+00
    -49.056  0.0000E+00  0.1400E+00
    -48.805  0.0000E+00  0.1400E+00
    -48.555  0.0000E+00  0.1400E+00
    -48.304  0.0000E+00  0.1400E+00
    -48.053  0.0000E+00  0.1400E+00
    -47.802  0.0000E+00  0.1400E+00
    -47.551  0.1913E-09  0.1400E+00
    -47.300  0.8476E-03  0.1402E+00
    -47.049  0.1222E+00  0.1709E+00
    -46.798  0.2306E+00  0.2287E+00
    -46.547  0.1179E+00  0.2583E+00
    -46.296  0.6712E-02  0.2600E+00
    -46.045  0.3319E-07  0.2600E+00
    -45.794  0.0000E+00  0.2600E+00
    -45.543  0.0000E+00  0.2600E+00
    -45.292  0.0000E+00  0.2600E+00
    -45.041  0.0000E+00  0.2600E+00
    -44.791  0.0000E+00  0.2600E+00
    -44.540  0.0000E+00  0.2600E+00
    -44.289  0.0000E+00  0.2600E+00
    -44.038  0.0000E+00  0.2600E+00
    -43.787  0.0000E+00  0.2600E+00
    -43.536  0.0000E+00  0.2600E+00
    -43.285  0.0000E+00  0.2600E+00
    -43.034  0.0000E+00  0.2600E+00
    -42.783  0.0000E+00  0.2600E+00
    -42.532  0.0000E+00  0.2600E+00
    -42.281  0.0000E+00  0.2600E+00
    -42.030  0.0000E+00  0.2600E+00
    -41.779  0.0000E+00  0.2600E+00
    -41.528  0.0000E+00  0.2600E+00
    -41.277  0.0000E+00  0.2600E+00
    -41.026  0.0000E+00  0.2600E+00
    -40.776  0.7478E-10  0.2600E+00
    -40.525  0.5546E-03  0.2601E+00
    -40.274  0.6975E-01  0.2776E+00
    -40.023  0.1232E+00  0.3086E+00
    -39.772  0.2447E+00  0.3700E+00
    -39.521  0.1196E+00  0.4000E+00
    -39.270  0.1073E-03  0.4000E+00
    -39.019  0.1321E-11  0.4000E+00
    -38.768  0.0000E+00  0.4000E+00
    -38.517  0.0000E+00  0.4000E+00
    -38.266  0.0000E+00  0.4000E+00
    -38.015  0.0000E+00  0.4000E+00
    -37.764  0.0000E+00  0.4000E+00
    -37.513  0.0000E+00  0.4000E+00
    -37.262  0.0000E+00  0.4000E+00
    -37.012  0.0000E+00  0.4000E+00
    -36.761  0.0000E+00  0.4000E+00
    -36.510  0.0000E+00  0.4000E+00
    -36.259  0.0000E+00  0.4000E+00
    -36.008  0.0000E+00  0.4000E+00
    -35.757  0.0000E+00  0.4000E+00
    -35.506  0.0000E+00  0.4000E+00
    -35.255  0.0000E+00  0.4000E+00
    -35.004  0.0000E+00  0.4000E+00
    -34.753  0.0000E+00  0.4000E+00
    -34.502  0.0000E+00  0.4000E+00
    -34.251  0.0000E+00  0.4000E+00
    -34.000  0.0000E+00  0.4000E+00
    -33.749  0.0000E+00  0.4000E+00
    -33.498  0.0000E+00  0.4000E+00
    -33.247  0.0000E+00  0.4000E+00
    -32.997  0.0000E+00  0.4000E+00
    -32.746  0.0000E+00  0.4000E+00
    -32.495  0.0000E+00  0.4000E+00
    -32.244  0.0000E+00  0.4000E+00
    -31.993  0.0000E+00  0.4000E+00
    -31.742  0.0000E+00  0.4000E+00
    -31.491  0.0000E+00  0.4000E+00
    -31.240  0.1389E-13  0.4000E+00
    -30.989  0.7867E-05  0.4000E+00
    -30.738  0.4442E-01  0.4111E+00
    -30.487  0.3461E+00  0.4980E+00
    -30.236  0.9267E+00  0.7305E+00
    -29.985  0.9352E+00  0.9652E+00
    -29.734  0.8453E+00  0.1177E+01
    -29.483  0.1072E-01  0.1180E+01
    -29.232  0.1195E-07  0.1180E+01
    -28.982  0.0000E+00  0.1180E+01
    -28.731  0.0000E+00  0.1180E+01
    -28.480  0.0000E+00  0.1180E+01
    -28.229  0.0000E+00  0.1180E+01
    -27.978  0.0000E+00  0.1180E+01
    -27.727  0.0000E+00  0.1180E+01
    -27.476  0.0000E+00  0.1180E+01
    -27.225  0.0000E+00  0.1180E+01
    -26.974  0.6224E-08  0.1180E+01
    -26.723  0.5075E-02  0.1181E+01
    -26.472  0.3080E+00  0.1259E+01
    -26.221  0.6581E+00  0.1424E+01
    -25.970  0.4559E+00  0.1538E+01
    -25.719  0.7577E-02  0.1540E+01
    -25.468  0.2610E-07  0.1540E+01
    -25.218  0.0000E+00  0.1540E+01
    -24.967  0.0000E+00  0.1540E+01
    -24.716  0.0000E+00  0.1540E+01
    -24.465  0.0000E+00  0.1540E+01
    -24.214  0.0000E+00  0.1540E+01
    -23.963  0.2971E-13  0.1540E+01
    -23.712  0.1165E-04  0.1540E+01
    -23.461  0.4102E-01  0.1550E+01
    -23.210  0.3522E+00  0.1639E+01
    -22.959  0.6667E+00  0.1806E+01
    -22.708  0.3237E+00  0.1887E+01
    -22.457  0.5106E-01  0.1900E+01
    -22.206  0.5629E-05  0.1900E+01
    -21.955  0.6626E-14  0.1900E+01
    -21.704  0.0000E+00  0.1900E+01
    -21.453  0.0000E+00  0.1900E+01
    -21.203  0.0000E+00  0.1900E+01
    -20.952  0.0000E+00  0.1900E+01
    -20.701  0.0000E+00  0.1900E+01
    -20.450  0.0000E+00  0.1900E+01
    -20.199  0.0000E+00  0.1900E+01
    -19.948  0.0000E+00  0.1900E+01
    -19.697  0.0000E+00  0.1900E+01
    -19.446  0.0000E+00  0.1900E+01
    -19.195  0.7387E-10  0.1900E+01
    -18.944  0.5539E-03  0.1900E+01
    -18.693  0.1106E+00  0.1928E+01
    -18.442  0.3499E+00  0.2016E+01
    -18.191  0.6598E+00  0.2181E+01
    -17.940  0.4554E+00  0.2296E+01
    -17.689  0.9667E-01  0.2320E+01
    -17.439  0.8068E-03  0.2320E+01
    -17.188  0.1746E-09  0.2320E+01
    -16.937  0.0000E+00  0.2320E+01
    -16.686  0.0000E+00  0.2320E+01
    -16.435  0.0000E+00  0.2320E+01
    -16.184  0.0000E+00  0.2320E+01
    -15.933  0.0000E+00  0.2320E+01
    -15.682  0.0000E+00  0.2320E+01
    -15.431  0.0000E+00  0.2320E+01
    -15.180  0.0000E+00  0.2320E+01
    -14.929  0.0000E+00  0.2320E+01
    -14.678  0.0000E+00  0.2320E+01
    -14.427  0.0000E+00  0.2320E+01
    -14.176  0.0000E+00  0.2320E+01
    -13.925  0.0000E+00  0.2320E+01
    -13.674  0.0000E+00  0.2320E+01
    -13.424  0.0000E+00  0.2320E+01
    -13.173  0.0000E+00  0.2320E+01
    -12.922  0.0000E+00  0.2320E+01
    -12.671  0.0000E+00  0.2320E+01
    -12.420  0.0000E+00  0.2320E+01
    -12.169  0.0000E+00  0.2320E+01
    -11.918  0.0000E+00  0.2320E+01
    -11.667  0.0000E+00  0.2320E+01
    -11.416  0.0000E+00  0.2320E+01
    -11.165  0.0000E+00  0.2320E+01
    -10.914  0.0000E+00  0.2320E+01
    -10.663  0.0000E+00  0.2320E+01
    -10.412  0.0000E+00  0.2320E+01
    -10.161  0.0000E+00  0.2320E+01
     -9.910  0.0000E+00  0.2320E+01
     -9.660  0.0000E+00  0.2320E+01
     -9.409  0.0000E+00  0.2320E+01
     -9.158  0.0000E+00  0.2320E+01
     -8.907  0.0000E+00  0.2320E+01
     -8.656  0.0000E+00  0.2320E+01
     -8.405  0.0000E+00  0.2320E+01
     -8.154  0.3282E-10  0.2320E+01
     -7.903  0.8829E-04  0.2320E+01
     -7.652  0.2051E-01  0.2325E+01
     -7.401  0.5781E-01  0.2340E+01
     -7.150  0.7018E-01  0.2357E+01
     -6.899  0.1368E+00  0.2392E+01
     -6.648  0.1780E+00  0.2436E+01
     -6.397  0.1191E+00  0.2466E+01
     -6.146  0.2492E+00  0.2529E+01
     -5.895  0.8156E-01  0.2549E+01
     -5.645  0.9639E-01  0.2573E+01
     -5.394  0.2638E-01  0.2580E+01
     -5.143  0.4031E-05  0.2580E+01
     -4.892  0.7268E-14  0.2580E+01
     -4.641  0.8101E-15  0.2580E+01
     -4.390  0.5098E-06  0.2580E+01
     -4.139  0.3718E-02  0.2581E+01
     -3.888  0.5200E-01  0.2594E+01
     -3.637  0.3491E-01  0.2603E+01
     -3.386  0.8769E-01  0.2625E+01
     -3.135  0.1071E+00  0.2652E+01
     -2.884  0.2002E+00  0.2702E+01
     -2.633  0.2358E+00  0.2761E+01
     -2.382  0.2271E+00  0.2818E+01
     -2.131  0.2276E+00  0.2875E+01
     -1.880  0.1716E+00  0.2918E+01
     -1.630  0.1179E+00  0.2948E+01
     -1.379  0.4214E-01  0.2958E+01
     -1.128  0.6528E-02  0.2960E+01
     -0.877  0.2904E-04  0.2960E+01
     -0.626  0.4657E-11  0.2960E+01
     -0.375  0.0000E+00  0.2960E+01
     -0.124  0.1311E-17  0.2960E+01
      0.127  0.1049E-07  0.2960E+01
      0.378  0.5708E-03  0.2960E+01
      0.629  0.9167E-02  0.2962E+01
      0.880  0.5396E-01  0.2976E+01
      1.131  0.8521E-01  0.2997E+01
      1.382  0.9803E-01  0.3022E+01
      1.633  0.1424E+00  0.3058E+01
      1.884  0.2037E+00  0.3109E+01
      2.134  0.2755E+00  0.3178E+01
      2.385  0.2685E+00  0.3245E+01
      2.636  0.2624E+00  0.3311E+01
      2.887  0.3524E+00  0.3400E+01
      3.138  0.3283E+00  0.3482E+01
      3.389  0.3956E+00  0.3581E+01
      3.640  0.4955E+00  0.3706E+01
      3.891  0.5779E+00  0.3851E+01
      4.142  0.6303E+00  0.4009E+01
      4.393  0.6027E+00  0.4160E+01
      4.644  0.5897E+00  0.4308E+01
      4.895  0.5250E+00  0.4440E+01
      5.146  0.4441E+00  0.4551E+01
      5.397  0.3404E+00  0.4637E+01
      5.648  0.3041E+00  0.4713E+01
      5.899  0.2690E+00  0.4780E+01
      6.149  0.1846E+00  0.4827E+01
      6.400  0.1523E+00  0.4865E+01
      6.651  0.6214E-01  0.4880E+01
      6.902  0.1202E+00  0.4911E+01
      7.153  0.1546E+00  0.4949E+01
      7.404  0.1757E+00  0.4994E+01
      7.655  0.2028E+00  0.5044E+01
      7.906  0.1999E+00  0.5095E+01
      8.157  0.1948E+00  0.5144E+01
      8.408  0.2578E+00  0.5208E+01
      8.659  0.2797E+00  0.5278E+01
      8.910  0.2237E+00  0.5335E+01
      9.161  0.2635E+00  0.5401E+01
      9.412  0.3625E+00  0.5492E+01
      9.663  0.3973E+00  0.5591E+01
      9.913  0.4652E+00  0.5708E+01
     10.164  0.4450E+00  0.5820E+01
     10.415  0.4384E+00  0.5930E+01
     10.666  0.4777E+00  0.6050E+01
     10.917  0.4629E+00  0.6166E+01
     11.168  0.4471E+00  0.6278E+01
     11.419  0.4747E+00  0.6397E+01
     11.670  0.4369E+00  0.6507E+01
     11.921  0.4669E+00  0.6624E+01
     12.172  0.3269E+00  0.6706E+01
     12.423  0.5627E-01  0.6720E+01
     12.674  0.1981E-03  0.6720E+01
     12.925  0.3710E-10  0.6720E+01
     13.176  0.0000E+00  0.6720E+01
     13.427  0.0000E+00  0.6720E+01
     13.678  0.0000E+00  0.6720E+01
     13.928  0.0000E+00  0.6720E+01
     14.179  0.0000E+00  0.6720E+01
     14.430  0.0000E+00  0.6720E+01
     14.681  0.0000E+00  0.6720E+01
     14.932  0.0000E+00  0.6720E+01
     15.183  0.0000E+00  0.6720E+01
     15.434  0.0000E+00  0.6720E+01
     15.685  0.0000E+00  0.6720E+01
