HECN                                    
           1
     8.838850    0.009103    0.031803
     0.015036    8.882910   -0.016388
     0.063646   -0.031626    8.873488
   Zr   Nb   V    N    C    W    Ta
   7   6   7  13  19   6   6
Direct configuration=     1
   0.99805299  0.00217450  0.99907287
   0.25984304  0.00373474  0.24469067
   0.24794272  0.49406366  0.24783922
   0.49844017  0.49607954  0.00087923
   0.50165440  0.24634472  0.75009469
   0.00111789  0.49915304  0.50196413
   0.49248916  0.75759012  0.75486519
   0.99164599  0.23577705  0.25601324
   0.75980329  0.74458727  0.00636235
   0.00581640  0.25495568  0.74606073
   0.75570156  0.25159133  0.49452964
   0.00251471  0.74569661  0.75313374
   0.24923206  0.49539658  0.74945837
   0.25587144  0.25656819  0.98739875
   0.51432392  0.26462315  0.24524971
   0.74908973  0.99147801  0.27194705
   0.74311668  0.25500990  0.00072668
   0.23232855  0.73614751  0.00053652
   0.24086187  0.24862816  0.50930249
   0.25044200  0.75059986  0.49934607
   0.25055248  0.24785718  0.24819370
   0.26185346  0.00049913  0.98999337
   0.00209379  0.25504853  0.00179162
   0.74486015  0.24470267  0.24686245
   0.74760727  0.00519308  0.01484178
   0.51585836  0.99945796  0.24346633
   0.99372439  0.49419440  0.24194378
   0.49902132  0.76151110  0.00932007
   0.99077572  0.00306399  0.74417551
   0.75643157  0.24702878  0.75408205
   0.74393946  0.00123833  0.51076703
   0.49890507  0.24059547  0.48935452
   0.49718315  0.00244261  0.73497303
   0.99482005  0.99699863  0.25427671
   0.50100866  0.24561537  0.01000822
   0.25382690  0.74978154  0.24652190
   0.24360816  0.49952893  0.99515721
   0.00454475  0.74525200  0.00312593
   0.75048353  0.75113266  0.25288383
   0.75708624  0.49396132  0.00115806
   0.50313723  0.49595360  0.25490204
   0.24937514  0.25052667  0.74813887
   0.25060404  0.00025160  0.50321567
   0.00491770  0.24649747  0.50046674
   0.24241812  0.75598783  0.75067182
   0.25608943  0.49913070  0.50115965
   0.00206025  0.75623846  0.50011519
   0.99885752  0.50059817  0.75201458
   0.74990133  0.75127720  0.75206673
   0.74512427  0.50035129  0.49935848
   0.49382782  0.75065974  0.49881111
   0.50054306  0.50109046  0.74444794
   0.51863732  0.01384306  0.98407691
   0.00358826  0.50456827  0.98833218
   0.49749267  0.74036194  0.25714690
   0.24399449  0.00919987  0.74814038
   0.48616102  0.98714355  0.48452060
   0.73850765  0.98537382  0.77161369
   0.00388245  0.76200287  0.25156638
   0.74670040  0.49725872  0.25030625
   0.01116059  0.00337344  0.49950463
   0.49690437  0.51167602  0.49899046
   0.74855323  0.50865255  0.75216238
   0.74908895  0.75267914  0.49590209
HECN                                    
           1
     8.864281    0.011378    0.030171
     0.017376    8.873381   -0.015999
     0.062078   -0.031131    8.902855
   Zr   Nb   V    N    C    W    Ta
   7   6   7  13  19   6   6
Direct configuration=     2
   0.99846257  0.00350731  0.99937104
   0.26007474  0.00429396  0.24434078
   0.24826544  0.49323394  0.24871251
   0.49870705  0.49713640  0.00069337
   0.50192290  0.24575110  0.74949357
   0.00192153  0.49932143  0.50211003
   0.49245202  0.75786580  0.75499263
   0.99139620  0.23557477  0.25524458
   0.76011778  0.74530066  0.00611986
   0.00547695  0.25546304  0.74667319
   0.75612777  0.25011898  0.49331335
   0.00232173  0.74592652  0.75320983
   0.24924031  0.49638291  0.74896460
   0.25742364  0.25829017  0.98588200
   0.51563010  0.26561797  0.24461621
   0.74985655  0.99219158  0.27287099
   0.73924100  0.25369692  0.00290020
   0.23086171  0.73408932  0.00075154
   0.23905252  0.24844109  0.51161333
   0.25231347  0.75103519  0.49825985
   0.24987499  0.24771585  0.24800926
   0.26166081  0.00104336  0.98978958
   0.00183228  0.25581876  0.00215549
   0.74445637  0.24448720  0.24528355
   0.74828810  0.00605766  0.01546878
   0.51641266  0.99917079  0.24248099
   0.99372322  0.49552255  0.24232662
   0.49860297  0.76155550  0.00959874
   0.99071268  0.00307152  0.74448299
   0.75643129  0.24692071  0.75415948
   0.74497757  0.00120650  0.51194344
   0.49869582  0.24150063  0.48873708
   0.49698991  0.00256094  0.73384779
   0.99504996  0.99796099  0.25411386
   0.49936172  0.24570363  0.00977931
   0.25377781  0.74926192  0.24594035
   0.24371945  0.49880626  0.99551259
   0.00455620  0.74526002  0.00315805
   0.75008988  0.75141226  0.25227796
   0.75697349  0.49368662  0.00110116
   0.50245785  0.49552196  0.25429876
   0.24930900  0.25009410  0.74829272
   0.25187273  0.00047129  0.50268486
   0.00524055  0.24662175  0.50046642
   0.24262543  0.75598308  0.75103610
   0.25544799  0.49871456  0.50163260
   0.00198607  0.75612085  0.50030780
   0.99879851  0.50060491  0.75187263
   0.75005603  0.75153653  0.75187066
   0.74545693  0.50005137  0.49934741
   0.49387414  0.75094089  0.49958921
   0.50075971  0.50099160  0.74471417
   0.51862501  0.01304360  0.98485863
   0.00343458  0.50425430  0.98861384
   0.49668174  0.73992107  0.25753436
   0.24434198  0.00805198  0.74773405
   0.48781548  0.98675576  0.48337406
   0.73798090  0.98524666  0.77173972
   0.00417705  0.76106606  0.25136340
   0.74795723  0.49771696  0.24993430
   0.01040474  0.00318504  0.49993861
   0.49679795  0.50976665  0.49967965
   0.74896585  0.50796858  0.75227192
   0.74787975  0.75340748  0.49654371
HECN                                    
           1
     8.884599    0.013195    0.028868
     0.019247    8.865768   -0.015689
     0.060824   -0.030734    8.926319
   Zr   Nb   V    N    C    W    Ta
   7   6   7  13  19   6   6
Direct configuration=     3
   0.99878864  0.00457324  0.99960850
   0.26025915  0.00474121  0.24406216
   0.24852286  0.49257019  0.24940803
   0.49891942  0.49798167  0.00054536
   0.50213685  0.24527629  0.74901494
   0.00256177  0.49945595  0.50222634
   0.49242238  0.75808629  0.75509410
   0.99119712  0.23541307  0.25463243
   0.76036814  0.74587121  0.00592677
   0.00520651  0.25586888  0.74716085
   0.75646745  0.24894131  0.49234488
   0.00216795  0.74611044  0.75327038
   0.24924659  0.49717184  0.74857135
   0.25865965  0.25966724  0.98467434
   0.51667040  0.26641343  0.24411190
   0.75046747  0.99276211  0.27360685
   0.73615394  0.25264741  0.00463052
   0.22969356  0.73244338  0.00092261
   0.23761145  0.24829170  0.51345328
   0.25380418  0.75138307  0.49739513
   0.24933525  0.24760296  0.24786229
   0.26150718  0.00147871  0.98962725
   0.00162383  0.25643485  0.00244519
   0.74413448  0.24431503  0.24402616
   0.74883042  0.00674900  0.01596817
   0.51685416  0.99894105  0.24169642
   0.99372207  0.49658484  0.24263145
   0.49826972  0.76159107  0.00982060
   0.99066250  0.00307754  0.74472783
   0.75643109  0.24683427  0.75422113
   0.74580481  0.00118078  0.51288043
   0.49852882  0.24222469  0.48824533
   0.49683576  0.00265569  0.73295168
   0.99523290  0.99873068  0.25398418
   0.49804956  0.24577457  0.00959677
   0.25373871  0.74884634  0.24547724
   0.24380833  0.49822819  0.99579563
   0.00456533  0.74526642  0.00318363
   0.74977610  0.75163600  0.25179541
   0.75688371  0.49346693  0.00105584
   0.50191659  0.49517688  0.25381825
   0.24925642  0.24974812  0.74841524
   0.25288333  0.00064679  0.50226234
   0.00549774  0.24672109  0.50046622
   0.24279066  0.75597921  0.75132623
   0.25493713  0.49838182  0.50200914
   0.00192703  0.75602678  0.50046117
   0.99875147  0.50061032  0.75175959
   0.75017919  0.75174393  0.75171453
   0.74572202  0.49981141  0.49933866
   0.49391111  0.75116572  0.50020885
   0.50093238  0.50091247  0.74492622
   0.51861549  0.01240412  0.98548117
   0.00331227  0.50400320  0.98883813
   0.49603584  0.73956859  0.25784279
   0.24461900  0.00713381  0.74741057
   0.48913347  0.98644532  0.48246129
   0.73756128  0.98514506  0.77184000
   0.00441192  0.76031671  0.25120183
   0.74895838  0.49808325  0.24963827
   0.00980267  0.00303448  0.50028409
   0.49671369  0.50823946  0.50022853
   0.74929475  0.50742142  0.75235924
   0.74691634  0.75399024  0.49705444
HECN                                    
           1
     8.878005    0.013645    0.028330
     0.019695    8.857134   -0.015704
     0.060263   -0.030730    8.918277
   Zr   Nb   V    N    C    W    Ta
   7   6   7  13  19   6   6
Direct configuration=     4
   0.99903383  0.00513062  0.99963607
   0.26036264  0.00497592  0.24391972
   0.24856941  0.49213777  0.24977570
   0.49902420  0.49851498  0.00041880
   0.50226565  0.24508380  0.74876590
   0.00266295  0.49959391  0.50238310
   0.49243993  0.75818350  0.75523469
   0.99105413  0.23558293  0.25440356
   0.76061769  0.74628972  0.00567739
   0.00505484  0.25609898  0.74747822
   0.75676780  0.24822683  0.49160586
   0.00212377  0.74617189  0.75336766
   0.24919238  0.49765630  0.74849819
   0.25935561  0.26053797  0.98383411
   0.51729912  0.26688670  0.24386252
   0.75082622  0.99316785  0.27409189
   0.73415953  0.25192842  0.00579917
   0.22903254  0.73141116  0.00105591
   0.23672201  0.24807218  0.51470891
   0.25479437  0.75167039  0.49678534
   0.24890122  0.24751526  0.24772672
   0.26139777  0.00178202  0.98952143
   0.00145043  0.25680962  0.00261939
   0.74401871  0.24419321  0.24329988
   0.74907075  0.00716079  0.01605801
   0.51710557  0.99876486  0.24123193
   0.99375231  0.49725884  0.24283423
   0.49810932  0.76160115  0.00996653
   0.99062427  0.00309860  0.74488357
   0.75642753  0.24675269  0.75419227
   0.74636024  0.00116787  0.51358347
   0.49853108  0.24275124  0.48794059
   0.49680900  0.00261458  0.73240448
   0.99540781  0.99882414  0.25401298
   0.49716431  0.24588693  0.00942404
   0.25371220  0.74866001  0.24519695
   0.24386537  0.49785282  0.99595612
   0.00442761  0.74540449  0.00319904
   0.74961292  0.75184061  0.25173996
   0.75688282  0.49332740  0.00104307
   0.50192769  0.49504844  0.25373080
   0.24920988  0.24957666  0.74856385
   0.25344073  0.00078968  0.50203999
   0.00553513  0.24674591  0.50044653
   0.24281712  0.75597219  0.75153823
   0.25488081  0.49817676  0.50221717
   0.00186699  0.75602160  0.50048919
   0.99876455  0.50072554  0.75180976
   0.75022812  0.75173043  0.75163146
   0.74583832  0.49965098  0.49928703
   0.49400016  0.75093343  0.50047733
   0.50106785  0.50088350  0.74494767
   0.51877029  0.01187382  0.98569482
   0.00317330  0.50372922  0.98875172
   0.49559326  0.73928801  0.25818671
   0.24471838  0.00641970  0.74716034
   0.48995949  0.98640865  0.48169853
   0.73722340  0.98523043  0.77220019
   0.00453856  0.76017195  0.25118669
   0.74925578  0.49833285  0.24944253
   0.00972375  0.00289957  0.50037627
   0.49670027  0.50742220  0.50038735
   0.74947916  0.50713894  0.75249079
   0.74629754  0.75424036  0.49710784
HECN                                    
           1
     8.862376    0.014712    0.027054
     0.020758    8.836668   -0.015741
     0.058933   -0.030719    8.899215
   Zr   Nb   V    N    C    W    Ta
   7   6   7  13  19   6   6
Direct configuration=     5
   0.99961541  0.00645311  0.99970150
   0.26060808  0.00553280  0.24358179
   0.24867995  0.49111175  0.25064805
   0.49927269  0.49978037  0.00011852
   0.50257119  0.24462705  0.74817504
   0.00290299  0.49992123  0.50275503
   0.49248155  0.75841415  0.75556826
   0.99071489  0.23598598  0.25386051
   0.76120958  0.74728271  0.00508573
   0.00469508  0.25664495  0.74823119
   0.75748029  0.24653151  0.48985250
   0.00201898  0.74631771  0.75359845
   0.24906370  0.49880581  0.74832461
   0.26100634  0.26260392  0.98184070
   0.51879048  0.26800958  0.24327092
   0.75167728  0.99413053  0.27524274
   0.72942863  0.25022269  0.00857161
   0.22746460  0.72896204  0.00137208
   0.23461227  0.24755141  0.51768787
   0.25714317  0.75235200  0.49533873
   0.24787161  0.24730724  0.24740500
   0.26113817  0.00250172  0.98927035
   0.00103906  0.25769889  0.00303268
   0.74374399  0.24390417  0.24157671
   0.74964082  0.00813783  0.01627119
   0.51770193  0.99834676  0.24012992
   0.99382399  0.49885807  0.24331537
   0.49772884  0.76162506  0.01031275
   0.99053358  0.00314858  0.74525305
   0.75641909  0.24655911  0.75412380
   0.74767793  0.00113716  0.51525157
   0.49853633  0.24400060  0.48721757
   0.49674545  0.00251704  0.73110619
   0.99582272  0.99904587  0.25408134
   0.49506426  0.24615364  0.00901408
   0.25364931  0.74821789  0.24453191
   0.24400076  0.49696215  0.99633690
   0.00410090  0.74573212  0.00323560
   0.74922579  0.75232612  0.25160837
   0.75688073  0.49299635  0.00101276
   0.50195403  0.49474365  0.25352331
   0.24909953  0.24916983  0.74891643
   0.25476295  0.00112866  0.50151252
   0.00562383  0.24680481  0.50039982
   0.24287991  0.75595552  0.75204123
   0.25474727  0.49769020  0.50271074
   0.00172456  0.75600930  0.50055565
   0.99879556  0.50099894  0.75192879
   0.75034417  0.75169839  0.75143439
   0.74611424  0.49927031  0.49916453
   0.49421144  0.75038224  0.50111431
   0.50138921  0.50081473  0.74499858
   0.51913761  0.01061554  0.98620173
   0.00284366  0.50307917  0.98854668
   0.49454346  0.73862233  0.25900262
   0.24495419  0.00472527  0.74656667
   0.49191889  0.98632153  0.47988895
   0.73642190  0.98543305  0.77305474
   0.00483900  0.75982845  0.25115079
   0.74996120  0.49892507  0.24897817
   0.00953654  0.00257949  0.50059496
   0.49666856  0.50548303  0.50076416
   0.74991668  0.50646867  0.75280293
   0.74482959  0.75483390  0.49723447
HECN                                    
           1
     8.862516    0.013600    0.027297
     0.019630    8.849261   -0.015937
     0.059196   -0.030977    8.894471
   Zr   Nb   V    N    C    W    Ta
   7   6   7  13  19   6   6
Direct configuration=     6
   0.99992490  0.00653855  0.99952989
   0.26059559  0.00559804  0.24346885
   0.24846561  0.49091318  0.25070474
   0.49928806  0.50006593  0.00003468
   0.50266124  0.24472805  0.74803966
   0.00245637  0.50012020  0.50290790
   0.49255433  0.75834537  0.75574195
   0.99082897  0.23642922  0.25388000
   0.76128169  0.74763224  0.00481603
   0.00446646  0.25670903  0.74850153
   0.75757623  0.24631991  0.48945628
   0.00200498  0.74632194  0.75363954
   0.24900822  0.49906935  0.74855510
   0.26090273  0.26281789  0.98155361
   0.51864230  0.26804038  0.24342913
   0.75179570  0.99442008  0.27537057
   0.72875471  0.24979760  0.00912359
   0.22756631  0.72868027  0.00146276
   0.23452760  0.24716619  0.51814003
   0.25755336  0.75265684  0.49496990
   0.24755688  0.24729437  0.24725516
   0.26108670  0.00264949  0.98920032
   0.00083759  0.25782426  0.00306846
   0.74391300  0.24380253  0.24138229
   0.74976853  0.00826785  0.01617226
   0.51781289  0.99822961  0.23984610
   0.99391026  0.49907634  0.24342576
   0.49766260  0.76159807  0.01037619
   0.99050120  0.00318433  0.74532524
   0.75640891  0.24640927  0.75400159
   0.74797381  0.00112041  0.51575985
   0.49869089  0.24426871  0.48701029
   0.49680080  0.00232948  0.73084838
   0.99595547  0.99865893  0.25422762
   0.49452660  0.24630496  0.00884168
   0.25360635  0.74825085  0.24444437
   0.24408049  0.49678787  0.99638976
   0.00382828  0.74600072  0.00325042
   0.74920606  0.75253946  0.25190534
   0.75692341  0.49287328  0.00103950
   0.50241111  0.49485928  0.25377371
   0.24910293  0.24917688  0.74916991
   0.25496827  0.00126093  0.50143375
   0.00539679  0.24678332  0.50042768
   0.24282204  0.75592194  0.75220693
   0.25506997  0.49758989  0.50274259
   0.00174551  0.75607867  0.50048883
   0.99887701  0.50123226  0.75203341
   0.75032576  0.75148418  0.75141800
   0.74605984  0.49917238  0.49904918
   0.49431472  0.74975097  0.50111564
   0.50145984  0.50083215  0.74484696
   0.51907952  0.01021788  0.98609719
   0.00260339  0.50277661  0.98836637
   0.49440342  0.73848087  0.25915823
   0.24486725  0.00412027  0.74643660
   0.49253621  0.98662087  0.47941838
   0.73625483  0.98573978  0.77345658
   0.00483449  0.76018698  0.25133153
   0.74968474  0.49911288  0.24889098
   0.00990167  0.00243202  0.50051500
   0.49683630  0.50522241  0.50060618
   0.74993419  0.50637623  0.75295080
   0.74460449  0.75472901  0.49696940
HECN                                    
           1
     8.862704    0.012111    0.027623
     0.018118    8.866136   -0.016200
     0.059549   -0.031323    8.888115
   Zr   Nb   V    N    C    W    Ta
   7   6   7  13  19   6   6
Direct configuration=     7
   0.00033964  0.00665292  0.99929980
   0.26057887  0.00568533  0.24331743
   0.24817835  0.49064745  0.25078076
   0.49930871  0.50044804 -0.00007771
   0.50278192  0.24486320  0.74785814
   0.00185794  0.50038637  0.50311288
   0.49265183  0.75825336  0.75597481
   0.99098192  0.23702235  0.25390614
   0.76137840  0.74809994  0.00445444
   0.00416012  0.25679475  0.74886400
   0.75770477  0.24603677  0.48892504
   0.00198622  0.74632760  0.75369464
   0.24893390  0.49942200  0.74886414
   0.26076395  0.26310417  0.98116872
   0.51844375  0.26808157  0.24364126
   0.75195442  0.99480756  0.27554194
   0.72785157  0.24922869  0.00986367
   0.22770255  0.72830326  0.00158434
   0.23441407  0.24665072  0.51874625
   0.25810307  0.75306480  0.49447539
   0.24713515  0.24727710  0.24705426
   0.26101776  0.00284721  0.98910644
   0.00056764  0.25799198  0.00311645
   0.74413946  0.24366654  0.24112160
   0.74993968  0.00844185  0.01603962
   0.51796157  0.99807286  0.23946556
   0.99402590  0.49936844  0.24357376
   0.49757384  0.76156195  0.01046124
   0.99045782  0.00323218  0.74542202
   0.75639524  0.24620877  0.75383775
   0.74837027  0.00109806  0.51644130
   0.49889805  0.24462750  0.48673238
   0.49687495  0.00207850  0.73050272
   0.99613328  0.99814119  0.25442372
   0.49380617  0.24650734  0.00861057
   0.25354880  0.74829495  0.24432701
   0.24418728  0.49655469  0.99646062
   0.00346302  0.74636010  0.00327032
   0.74917965  0.75282493  0.25230350
   0.75698057  0.49270860  0.00107535
   0.50302361  0.49501409  0.25410941
   0.24910748  0.24918632  0.74950977
   0.25524343  0.00143794  0.50132812
   0.00509257  0.24675453  0.50046503
   0.24274447  0.75587701  0.75242910
   0.25550237  0.49745572  0.50278528
   0.00177360  0.75617149  0.50039923
   0.99898618  0.50154449  0.75217368
   0.75030106  0.75119755  0.75139601
   0.74598694  0.49904132  0.49889453
   0.49445300  0.74890629  0.50111741
   0.50155449  0.50085547  0.74464367
   0.51900161  0.00968576  0.98595702
   0.00228138  0.50237172  0.98812462
   0.49421573  0.73829157  0.25936685
   0.24475065  0.00331069  0.74626219
   0.49336348  0.98702151  0.47878745
   0.73603099  0.98615021  0.77399535
   0.00482850  0.76066674  0.25157387
   0.74931432  0.49936414  0.24877409
   0.01039090  0.00223476  0.50040779
   0.49706104  0.50487368  0.50039436
   0.74995763  0.50625254  0.75314904
   0.74430285  0.75458861  0.49661403
HECN                                    
           1
     8.862739    0.011835    0.027683
     0.017837    8.869268   -0.016249
     0.059615   -0.031388    8.886935
   Zr   Nb   V    N    C    W    Ta
   7   6   7  13  19   6   6
Direct configuration=     8
   0.00041660  0.00667412  0.99925707
   0.26057577  0.00570150  0.24328932
   0.24812505  0.49059823  0.25079487
   0.49931255  0.50051880 -0.00009858
   0.50280432  0.24488823  0.74782444
   0.00174692  0.50043564  0.50315094
   0.49266992  0.75823633  0.75601805
   0.99101032  0.23713219  0.25391100
   0.76139636  0.74818656  0.00438730
   0.00410328  0.25681061  0.74893130
   0.75772862  0.24598434  0.48882640
   0.00198274  0.74632865  0.75370487
   0.24892013  0.49948730  0.74892152
   0.26073821  0.26315718  0.98109725
   0.51840691  0.26808920  0.24368064
   0.75198388  0.99487932  0.27557377
   0.72768398  0.24912331  0.01000108
   0.22772781  0.72823345  0.00160691
   0.23439298  0.24655527  0.51885881
   0.25820508  0.75314036  0.49438357
   0.24705691  0.24727388  0.24701696
   0.26100498  0.00288383  0.98908901
   0.00051756  0.25802303  0.00312536
   0.74418147  0.24364136  0.24107320
   0.74997144  0.00847407  0.01601500
   0.51798915  0.99804384  0.23939490
   0.99404736  0.49942254  0.24360124
   0.49755737  0.76155526  0.01047703
   0.99044977  0.00324104  0.74544000
   0.75639270  0.24617164  0.75380732
   0.74844382  0.00109394  0.51656782
   0.49893650  0.24469394  0.48668078
   0.49688870  0.00203202  0.73043854
   0.99616626  0.99804531  0.25446013
   0.49367251  0.24654480  0.00856766
   0.25353812  0.74830311  0.24430522
   0.24420708  0.49651151  0.99647378
   0.00339527  0.74642664  0.00327402
   0.74917476  0.75287780  0.25237743
   0.75699117  0.49267810  0.00108201
   0.50313726  0.49504278  0.25417174
   0.24910833  0.24918807  0.74957287
   0.25529449  0.00147073  0.50130851
   0.00503612  0.24674919  0.50047197
   0.24273008  0.75586869  0.75247035
   0.25558259  0.49743089  0.50279320
   0.00177882  0.75618868  0.50038259
   0.99900645  0.50160231  0.75219972
   0.75029647  0.75114447  0.75139193
   0.74597341  0.49901705  0.49886582
   0.49447863  0.74874987  0.50111773
   0.50157205  0.50085979  0.74460593
   0.51898714  0.00958722  0.98593099
   0.00222162  0.50229672  0.98807973
   0.49418090  0.73825651  0.25940558
   0.24472899  0.00316076  0.74622981
   0.49351698  0.98709573  0.47867030
   0.73598947  0.98622622  0.77409539
   0.00482740  0.76075559  0.25161886
   0.74924561  0.49941066  0.24875239
   0.01048167  0.00219824  0.50038788
   0.49710272  0.50480911  0.50035503
   0.74996197  0.50622963  0.75318585
   0.74424689  0.75456260  0.49654805
HECN                                    
           1
     8.862724    0.010883    0.027818
     0.016889    8.864691   -0.015959
     0.059741   -0.031081    8.890480
   Zr   Nb   V    N    C    W    Ta
   7   6   7  13  19   6   6
Direct configuration=     9
   0.00073693  0.00666366  0.99916608
   0.26053390  0.00579313  0.24318975
   0.24800363  0.49057386  0.25076051
   0.49931300  0.50053595 -0.00001985
   0.50280126  0.24480989  0.74768321
   0.00152153  0.50053247  0.50328105
   0.49275014  0.75824652  0.75601585
   0.99140228  0.23702491  0.25394541
   0.76128966  0.74852255  0.00431439
   0.00386464  0.25699911  0.74908824
   0.75762853  0.24592418  0.48864126
   0.00192817  0.74632611  0.75364256
   0.24890479  0.49967481  0.74907773
   0.26024369  0.26324074  0.98115531
   0.51791650  0.26805766  0.24399702
   0.75192945  0.99507771  0.27555660
   0.72755749  0.24876166  0.01029038
   0.22793321  0.72814450  0.00169856
   0.23458284  0.24614126  0.51892835
   0.25839206  0.75353426  0.49413960
   0.24685961  0.24733349  0.24686697
   0.26102207  0.00295052  0.98900296
   0.00026372  0.25801501  0.00307723
   0.74435357  0.24369757  0.24111373
   0.75009530  0.00848431  0.01603079
   0.51804854  0.99792262  0.23907246
   0.99404801  0.49940664  0.24367720
   0.49747428  0.76151611  0.01045876
   0.99044735  0.00328304  0.74542257
   0.75634101  0.24596311  0.75366993
   0.74862149  0.00103457  0.51684679
   0.49909789  0.24471708  0.48648572
   0.49693517  0.00192952  0.73032702
   0.99624270  0.99811092  0.25453742
   0.49336825  0.24649718  0.00841554
   0.25351520  0.74838551  0.24434813
   0.24419364  0.49646970  0.99651381
   0.00333293  0.74646526  0.00329834
   0.74919046  0.75300742  0.25251690
   0.75695791  0.49260901  0.00110274
   0.50331960  0.49522370  0.25427754
   0.24906375  0.24913653  0.74981331
   0.25559482  0.00156127  0.50122493
   0.00482588  0.24671609  0.50062662
   0.24275352  0.75582719  0.75261922
   0.25573524  0.49735481  0.50279116
   0.00185426  0.75627084  0.50035037
   0.99904616  0.50175627  0.75221167
   0.75027628  0.75111591  0.75139240
   0.74585053  0.49894318  0.49873810
   0.49455011  0.74850709  0.50101472
   0.50158005  0.50084324  0.74450488
   0.51883821  0.00963494  0.98576550
   0.00207124  0.50227700  0.98809630
   0.49421960  0.73817587  0.25933796
   0.24457929  0.00269154  0.74614570
   0.49414965  0.98705297  0.47856657
   0.73582756  0.98618723  0.77422294
   0.00479697  0.76108657  0.25176632
   0.74913358  0.49955131  0.24870105
   0.01087002  0.00219785  0.50042960
   0.49728475  0.50471545  0.50025719
   0.74996648  0.50628117  0.75331676
   0.74417001  0.75450823  0.49649233
HECN                                    
           1
     8.862682    0.008232    0.028192
     0.014250    8.851942   -0.015152
     0.060094   -0.030227    8.900355
   Zr   Nb   V    N    C    W    Ta
   7   6   7  13  19   6   6
Direct configuration=    10
   0.00162923  0.00663461  0.99891269
   0.26041729  0.00604851  0.24291249
   0.24766540  0.49050593  0.25066485
   0.49931425  0.50058374  0.00019937
   0.50279273  0.24459159  0.74728997
   0.00089372  0.50080224  0.50364335
   0.49297361  0.75827494  0.75600972
   0.99249408  0.23672602  0.25404123
   0.76099257  0.74945893  0.00411135
   0.00319995  0.25752436  0.74952521
   0.75734972  0.24575652  0.48812576
   0.00177615  0.74631903  0.75346906
   0.24886212  0.50019736  0.74951267
   0.25886620  0.26347347  0.98131697
   0.51655042  0.26796959  0.24487797
   0.75177788  0.99563058  0.27550879
   0.72720505  0.24775365  0.01109596
   0.22850533  0.72789667  0.00195375
   0.23511157  0.24498747  0.51912202
   0.25891303  0.75463213  0.49346025
   0.24631004  0.24749958  0.24644932
   0.26106968  0.00313639  0.98876334
  -0.00044338  0.25799259  0.00294322
   0.74483299  0.24385428  0.24122658
   0.75044032  0.00851287  0.01607476
   0.51821393  0.99758483  0.23817465
   0.99404982  0.49936231  0.24388872
   0.49724281  0.76140699  0.01040789
   0.99044061  0.00340009  0.74537404
   0.75619697  0.24538195  0.75328739
   0.74911638  0.00086911  0.51762354
   0.49954745  0.24478164  0.48594260
   0.49706458  0.00164386  0.73001650
   0.99645565  0.99829376  0.25475261
   0.49252069  0.24636439  0.00799199
   0.25345138  0.74861513  0.24446760
   0.24415618  0.49635319  0.99662527
   0.00315928  0.74657287  0.00336605
   0.74923422  0.75336865  0.25290522
   0.75686523  0.49241645  0.00116047
   0.50382755  0.49572795  0.25457211
   0.24893958  0.24899284  0.75048279
   0.25643144  0.00181369  0.50099218
   0.00424025  0.24662378  0.50105725
   0.24281881  0.75571151  0.75303372
   0.25616046  0.49714284  0.50278547
   0.00206444  0.75649984  0.50026064
   0.99915683  0.50218535  0.75224494
   0.75022005  0.75103631  0.75139372
   0.74550821  0.49873730  0.49838248
   0.49474917  0.74783050  0.50072789
   0.50160231  0.50079714  0.74422352
   0.51842337  0.00976791  0.98530471
   0.00165233  0.50222200  0.98814245
   0.49432737  0.73795114  0.25914967
   0.24416215  0.00138381  0.74591155
   0.49591196  0.98693400  0.47827773
   0.73537655  0.98607851  0.77457812
   0.00471232  0.76200898  0.25217686
   0.74882156  0.49994327  0.24855810
   0.01195180  0.00219687  0.50054575
   0.49779177  0.50445447  0.49998479
   0.74997906  0.50642481  0.75368129
   0.74395584  0.75435667  0.49633720
HECN                                    
           1
     8.860933    0.007973    0.027996
     0.013986    8.854814   -0.014786
     0.059887   -0.029871    8.899980
   Zr   Nb   V    N    C    W    Ta
   7   6   7  13  19   6   6
Direct configuration=    11
   0.00210401  0.00652716  0.99878580
   0.26069422  0.00605664  0.24285772
   0.24767914  0.49081755  0.25080368
   0.49932576  0.50030151  0.00029110
   0.50261040  0.24445821  0.74718520
   0.00117375  0.50078493  0.50368153
   0.49297908  0.75811667  0.75587065
   0.99307001  0.23646591  0.25427540
   0.76079980  0.74997991  0.00422071
   0.00296483  0.25782992  0.74951158
   0.75712384  0.24558191  0.48779451
   0.00172029  0.74645935  0.75344790
   0.24889059  0.50046462  0.74945217
   0.25804418  0.26380142  0.98145696
   0.51594488  0.26782762  0.24522005
   0.75133796  0.99596804  0.27557454
   0.72698871  0.24714450  0.01164065
   0.22860735  0.72788244  0.00215430
   0.23521666  0.24458222  0.51936644
   0.25914535  0.75530174  0.49316129
   0.24621042  0.24763927  0.24620711
   0.26122046  0.00313715  0.98867312
  -0.00090508  0.25793666  0.00292600
   0.74489940  0.24408936  0.24131524
   0.75053740  0.00844990  0.01612191
   0.51825126  0.99748889  0.23766112
   0.99391378  0.49927357  0.24396187
   0.49700053  0.76132454  0.01027494
   0.99042765  0.00347985  0.74525693
   0.75606994  0.24503862  0.75304420
   0.74942077  0.00079099  0.51787812
   0.49964597  0.24463729  0.48574041
   0.49700842  0.00157511  0.72976071
   0.99659204  0.99876595  0.25475328
   0.49218906  0.24617527  0.00784152
   0.25347288  0.74874110  0.24460813
   0.24404015  0.49642768  0.99673929
   0.00331210  0.74645350  0.00345061
   0.74929231  0.75353058  0.25281489
   0.75668186  0.49236679  0.00119690
   0.50350906  0.49580760  0.25440671
   0.24864273  0.24868058  0.75065262
   0.25731408  0.00183467  0.50080845
   0.00419006  0.24664984  0.50133222
   0.24295673  0.75559633  0.75323140
   0.25603746  0.49701444  0.50282214
   0.00223037  0.75656032  0.50030778
   0.99911409  0.50229940  0.75225131
   0.75025151  0.75109383  0.75138601
   0.74546692  0.49864938  0.49829791
   0.49480446  0.74796025  0.50059314
   0.50155952  0.50070303  0.74426382
   0.51841797  0.00993358  0.98518429
   0.00155352  0.50233103  0.98820041
   0.49447964  0.73814203  0.25898365
   0.24376181  0.00082045  0.74573014
   0.49701061  0.98679376  0.47794511
   0.73525510  0.98610881  0.77474827
   0.00461215  0.76206245  0.25225577
   0.74913780  0.50000960  0.24837954
   0.01231061  0.00227778  0.50089869
   0.49773950  0.50419064  0.50003291
   0.74998908  0.50640108  0.75392986
   0.74395348  0.75440452  0.49637952
HECN                                    
           1
     8.858161    0.007564    0.027686
     0.013567    8.859366   -0.014206
     0.059560   -0.029307    8.899387
   Zr   Nb   V    N    C    W    Ta
   7   6   7  13  19   6   6
Direct configuration=    12
   0.00285642  0.00635698  0.99858474
   0.26113309  0.00606952  0.24277096
   0.24770092  0.49131114  0.25102365