<?xml version="1.0" encoding="ISO-8859-1"?>
<modeling>
 <generator>
  <i name="program" type="string">vasp </i>
  <i name="version" type="string">5.4.4.18Apr17-6-g9f103f2a35  </i>
  <i name="subversion" type="string">(build Oct 18 2021 20:38:43) complex            parallel </i>
  <i name="platform" type="string">LinuxIFC </i>
  <i name="date" type="string">2024 06 15 </i>
  <i name="time" type="string">16:25:37 </i>
 </generator>
 <incar>
  <i type="string" name="SYSTEM">HECN</i>
  <i type="int" name="ISTART">     0</i>
  <i type="string" name="PREC">normal</i>
  <i type="string" name="ALGO">Fast</i>
  <i type="int" name="ICHARG">     2</i>
  <i type="int" name="NELM">    60</i>
  <i type="int" name="IBRION">     2</i>
  <i name="EDIFF">      0.00001000</i>
  <i name="EDIFFG">     -0.01000000</i>
  <i type="int" name="NSW">   100</i>
  <i type="int" name="ISIF">     3</i>
  <i name="ENCUT">    400.00000000</i>
  <i name="POTIM">      0.50000000</i>
  <i type="logical" name="LREAL"> F  </i>
  <i type="int" name="ISMEAR">     0</i>
  <i name="SIGMA">      0.10000000</i>
  <i type="logical" name="LWAVE"> F  </i>
  <i type="logical" name="LCHARG"> F  </i>
  <v type="int" name="KPOINT_BSE">    -1     0     0     0</v>
  <i type="int" name="NELM">    60</i>
 </incar>
 <structure name="primitive_cell" >
  <crystal>
   <varray name="basis" >
    <v>       8.93249989       0.00000000       0.00000000 </v>
    <v>       0.00575300       9.05559834       0.00000000 </v>
    <v>       0.03210180      -0.01574346       8.93712807 </v>
   </varray>
   <i name="volume">    722.91652451 </i>
   <varray name="rec_basis" >
    <v>       0.11195074      -0.00007112      -0.00040225 </v>
    <v>       0.00000000       0.11042893       0.00019453 </v>
    <v>       0.00000000       0.00000000       0.11189277 </v>
   </varray>
  </crystal>
  <varray name="positions" >
   <v>      -0.00311999      -0.00795003      -0.00075998 </v>
   <v>      -0.25232999      -0.00252000       0.01202000 </v>
   <v>      -0.00162995      -0.25686004       0.00460000 </v>
   <v>      -0.00280000      -0.00228008       0.25899999 </v>
   <v>       0.00281000       0.25024000       0.00130000 </v>
   <v>      -0.01103011       0.00202000      -0.26291001 </v>
   <v>       0.26146999      -0.00015998      -0.00704004 </v>
   <v>      -0.00135002      -0.22426001       0.26102000 </v>
   <v>      -0.25720997      -0.02130006      -0.23549005 </v>
   <v>       0.23780002       0.01082000      -0.25392002 </v>
   <v>      -0.24282000      -0.25897003       0.01100000 </v>
   <v>       0.24762001      -0.25026001      -0.00025994 </v>
   <v>      -0.00485996      -0.25507996      -0.25488003 </v>
   <v>      -0.24281000       0.25603001      -0.00408003 </v>
   <v>       0.25398003      -0.00285005       0.24912000 </v>
   <v>       0.24788999       0.24839000      -0.00342003 </v>
   <v>      -0.00562996       0.23617001       0.26379999 </v>
   <v>      -0.25120996      -0.01212001       0.26967001 </v>
   <v>       0.00201000       0.25541000      -0.26105999 </v>
   <v>       0.24177002      -0.24659003      -0.24981998 </v>
   <v>      -0.24963995      -0.25112000      -0.25243996 </v>
   <v>      -0.24255004       0.24437997      -0.25103001 </v>
   <v>       0.25133999      -0.25041998       0.24910999 </v>
   <v>      -0.24367000      -0.26108997       0.25767000 </v>
   <v>      -0.24686002       0.24616999       0.25492002 </v>
   <v>       0.24982001       0.24942998       0.24825000 </v>
   <v>       0.24900999       0.25315000      -0.25146000 </v>
   <v>      -0.48411003       0.01358000      -0.01924992 </v>
   <v>      -0.00158006      -0.49023002      -0.01386996 </v>
   <v>       0.02362000      -0.00216999       0.49557002 </v>
   <v>      -0.49480995      -0.23869001       0.00855000 </v>
   <v>      -0.49285006      -0.00023001       0.24673000 </v>
   <v>      -0.24160996      -0.49684002       0.00288000 </v>
   <v>      -0.00999997      -0.23784997       0.49746000 </v>
   <v>      -0.00948001       0.48088003       0.24100999 </v>
   <v>       0.24446000      -0.00176004      -0.49712002 </v>
   <v>      -0.26367999       0.00417000      -0.48937000 </v>
   <v>       0.24328000      -0.49927003      -0.00489006 </v>
   <v>      -0.49572003       0.24673000       0.00262000 </v>
   <v>      -0.00796004      -0.49944001      -0.24861998 </v>
   <v>      -0.00195991       0.24229999      -0.49871997 </v>
   <v>      -0.49991002       0.00061000      -0.26528002 </v>
   <v>      -0.26123997      -0.47171998      -0.26185001 </v>
   <v>       0.49950005      -0.24518001      -0.25182996 </v>
   <v>       0.24457999      -0.24951001       0.49983999 </v>
   <v>      -0.24599997      -0.27062001       0.49116997 </v>
   <v>      -0.49520997       0.24631001      -0.25289998 </v>
   <v>       0.24803003      -0.49835000       0.24955001 </v>
   <v>      -0.26448999      -0.48531996       0.26666001 </v>
   <v>      -0.49167000       0.25676999       0.25376001 </v>
   <v>      -0.49620997      -0.26073003       0.25905001 </v>
   <v>      -0.24692999       0.26163001      -0.49466998 </v>
   <v>       0.25272001       0.24823001      -0.49984997 </v>
   <v>       0.25679999       0.49462002      -0.25454998 </v>
   <v>       0.47957999      -0.01691999       0.49717999 </v>
   <v>      -0.49498994       0.49745998      -0.00165997 </v>
   <v>      -0.00572008      -0.49550001       0.49779000 </v>
   <v>      -0.49436004       0.23264998       0.49544997 </v>
   <v>      -0.49424994      -0.25041998       0.49720000 </v>
   <v>      -0.49299998      -0.49666998       0.25878999 </v>
   <v>      -0.49498997      -0.49782002      -0.26087997 </v>
   <v>      -0.25963999      -0.49803000      -0.49932997 </v>
   <v>       0.25841001      -0.49937998      -0.49870999 </v>
   <v>      -0.49461000      -0.47166995       0.49917999 </v>
  </varray>
 </structure>
 <varray name="primitive_index" >
  <v type="int" >        1 </v>
  <v type="int" >       25 </v>
  <v type="int" >       38 </v>
  <v type="int" >       34 </v>
  <v type="int" >       23 </v>
  <v type="int" >       29 </v>
  <v type="int" >       22 </v>
  <v type="int" >       59 </v>
  <v type="int" >       58 </v>
  <v type="int" >       56 </v>
  <v type="int" >        9 </v>
  <v type="int" >       18 </v>
  <v type="int" >       12 </v>
  <v type="int" >       17 </v>
  <v type="int" >        2 </v>
  <v type="int" >       14 </v>
  <v type="int" >        8 </v>
  <v type="int" >       16 </v>
  <v type="int" >       10 </v>
  <v type="int" >       45 </v>
  <v type="int" >       49 </v>
  <v type="int" >       30 </v>
  <v type="int" >       36 </v>
  <v type="int" >       39 </v>
  <v type="int" >       24 </v>
  <v type="int" >       21 </v>
  <v type="int" >       42 </v>
  <v type="int" >       53 </v>
  <v type="int" >       54 </v>
  <v type="int" >       61 </v>
  <v type="int" >       28 </v>
  <v type="int" >       26 </v>
  <v type="int" >       40 </v>
  <v type="int" >       47 </v>
  <v type="int" >       27 </v>
  <v type="int" >       43 </v>
  <v type="int" >       31 </v>
  <v type="int" >       37 </v>
  <v type="int" >       35 </v>
  <v type="int" >       48 </v>
  <v type="int" >       44 </v>
  <v type="int" >       33 </v>
  <v type="int" >       63 </v>
  <v type="int" >        7 </v>
  <v type="int" >       20 </v>
  <v type="int" >       64 </v>
  <v type="int" >        5 </v>
  <v type="int" >        3 </v>
  <v type="int" >       60 </v>
  <v type="int" >       15 </v>
  <v type="int" >       55 </v>
  <v type="int" >       11 </v>
  <v type="int" >       19 </v>
  <v type="int" >       13 </v>
  <v type="int" >       57 </v>
  <v type="int" >        4 </v>
  <v type="int" >        6 </v>
  <v type="int" >       32 </v>
  <v type="int" >       51 </v>
  <v type="int" >       41 </v>
  <v type="int" >       52 </v>
  <v type="int" >       50 </v>
  <v type="int" >       46 </v>
  <v type="int" >       62 </v>
 </varray>
 <kpoints>
  <generation param="Gamma">
   <v type="int" name="divisions">       3        3        3 </v>
   <v name="usershift">      0.00000000       0.00000000       0.00000000 </v>
   <v name="genvec1">      0.33333333      -0.00000000      -0.00000000 </v>
   <v name="genvec2">      0.00000000       0.33333333       0.00000000 </v>
   <v name="genvec3">      0.00000000       0.00000000       0.33333333 </v>
   <v name="shift">      0.00000000       0.00000000       0.00000000 </v>
  </generation>
  <varray name="kpointlist" >
   <v>       0.00000000       0.00000000       0.00000000 </v>
   <v>       0.33333333       0.00000000       0.00000000 </v>
   <v>       0.00000000       0.33333333       0.00000000 </v>
   <v>       0.33333333       0.33333333       0.00000000 </v>
   <v>      -0.33333333       0.33333333       0.00000000 </v>
   <v>       0.00000000       0.00000000       0.33333333 </v>
   <v>       0.33333333       0.00000000       0.33333333 </v>
   <v>      -0.33333333       0.00000000       0.33333333 </v>
   <v>       0.00000000       0.33333333       0.33333333 </v>
   <v>       0.33333333       0.33333333       0.33333333 </v>
   <v>      -0.33333333       0.33333333       0.33333333 </v>
   <v>       0.00000000      -0.33333333       0.33333333 </v>
   <v>       0.33333333      -0.33333333       0.33333333 </v>
   <v>      -0.33333333      -0.33333333       0.33333333 </v>
  </varray>
  <varray name="weights" >
   <v>       0.03703704 </v>
   <v>       0.07407407 </v>
   <v>       0.07407407 </v>
   <v>       0.07407407 </v>
   <v>       0.07407407 </v>
   <v>       0.07407407 </v>
   <v>       0.07407407 </v>
   <v>       0.07407407 </v>
   <v>       0.07407407 </v>
   <v>       0.07407407 </v>
   <v>       0.07407407 </v>
   <v>       0.07407407 </v>
   <v>       0.07407407 </v>
   <v>       0.07407407 </v>
  </varray>
 </kpoints>
 <parameters>
  <separator name="general" >
   <i type="string" name="SYSTEM">HECN</i>
   <i type="logical" name="LCOMPAT"> F  </i>
  </separator>
  <separator name="electronic" >
   <i type="string" name="PREC">normal</i>
   <i name="ENMAX">    400.00000000</i>
   <i name="ENAUG">    644.87300000</i>
   <i name="EDIFF">      0.00001000</i>
   <i type="int" name="IALGO">    68</i>
   <i type="int" name="IWAVPR">    11</i>
   <i type="int" name="NBANDS">   312</i>
   <i name="NELECT">    511.00000000</i>
   <i type="int" name="TURBO">     0</i>
   <i type="int" name="IRESTART">     0</i>
   <i type="int" name="NREBOOT">     0</i>
   <i type="int" name="NMIN">     0</i>
   <i name="EREF">      0.00000000</i>
   <separator name="electronic smearing" >
    <i type="int" name="ISMEAR">     0</i>
    <i name="SIGMA">      0.10000000</i>
    <i name="KSPACING">      0.50000000</i>
    <i type="logical" name="KGAMMA"> T  </i>
   </separator>
   <separator name="electronic projectors" >
    <i type="logical" name="LREAL"> F  </i>
    <v name="ROPT">      0.00000000      0.00000000      0.00000000      0.00000000      0.00000000      0.00000000      0.00000000</v>
    <i type="int" name="LMAXPAW">  -100</i>
    <i type="int" name="LMAXMIX">     2</i>
    <i type="logical" name="NLSPLINE"> F  </i>
   </separator>
   <separator name="electronic startup" >
    <i type="int" name="ISTART">     0</i>
    <i type="int" name="ICHARG">     2</i>
    <i type="int" name="INIWAV">     1</i>
   </separator>
   <separator name="electronic spin" >
    <i type="int" name="ISPIN">     1</i>
    <i type="logical" name="LNONCOLLINEAR"> F  </i>
    <v name="MAGMOM">      1.00000000      1.00000000      1.00000000      1.00000000      1.00000000      1.00000000      1.00000000      1.00000000      1.00000000      1.00000000      1.00000000      1.00000000      1.00000000      1.00000000      1.00000000      1.00000000      1.00000000      1.00000000      1.00000000      1.00000000
      1.00000000      1.00000000      1.00000000      1.00000000      1.00000000      1.00000000      1.00000000      1.00000000      1.00000000      1.00000000      1.00000000      1.00000000      1.00000000      1.00000000      1.00000000      1.00000000      1.00000000      1.00000000      1.00000000      1.00000000
      1.00000000      1.00000000      1.00000000      1.00000000      1.00000000      1.00000000      1.00000000      1.00000000      1.00000000      1.00000000      1.00000000      1.00000000      1.00000000      1.00000000      1.00000000      1.00000000      1.00000000      1.00000000      1.00000000      1.00000000
      1.00000000      1.00000000      1.00000000      1.00000000</v>
    <i name="NUPDOWN">     -1.00000000</i>
    <i type="logical" name="LSORBIT"> F  </i>
    <v name="SAXIS">      0.00000000      0.00000000      1.00000000</v>
    <i type="logical" name="LSPIRAL"> F  </i>
    <v name="QSPIRAL">      0.00000000      0.00000000      0.00000000</v>
    <i type="logical" name="LZEROZ"> F  </i>
   </separator>
   <separator name="electronic exchange-correlation" >
    <i type="logical" name="LASPH"> F  </i>
    <i type="logical" name="LMETAGGA"> F  </i>
   </separator>
   <separator name="electronic convergence" >
    <i type="int" name="NELM">    60</i>
    <i type="int" name="NELMDL">    -5</i>
    <i type="int" name="NELMIN">     2</i>
    <i name="ENINI">    400.00000000</i>
    <separator name="electronic convergence detail" >
     <i type="logical" name="LDIAG"> T  </i>
     <i type="logical" name="LSUBROT"> F  </i>
     <i name="WEIMIN">      0.00100000</i>
     <i name="EBREAK">      0.00000001</i>
     <i name="DEPER">      0.30000000</i>
     <i type="int" name="NRMM">     4</i>
     <i name="TIME">      0.40000000</i>
    </separator>
   </separator>
   <separator name="electronic mixer" >
    <i name="AMIX">      0.40000000</i>
    <i name="BMIX">      1.00000000</i>
    <i name="AMIN">      0.10000000</i>
    <i name="AMIX_MAG">      1.60000000</i>
    <i name="BMIX_MAG">      1.00000000</i>
    <separator name="electronic mixer details" >
     <i type="int" name="IMIX">     4</i>
     <i type="logical" name="MIXFIRST"> F  </i>
     <i type="int" name="MAXMIX">   -45</i>
     <i name="WC">    100.00000000</i>
     <i type="int" name="INIMIX">     1</i>
     <i type="int" name="MIXPRE">     1</i>
     <i type="int" name="MREMOVE">     5</i>
    </separator>
   </separator>
   <separator name="electronic dipolcorrection" >
    <i type="logical" name="LDIPOL"> F  </i>
    <i type="logical" name="LMONO"> F  </i>
    <i type="int" name="IDIPOL">     0</i>
    <i name="EPSILON">      1.00000000</i>
    <v name="DIPOL">   -100.00000000   -100.00000000   -100.00000000</v>
    <i name="EFIELD">      0.00000000</i>
   </separator>
  </separator>
  <separator name="grids" >
   <i type="int" name="NGX">    48</i>
   <i type="int" name="NGY">    48</i>
   <i type="int" name="NGZ">    48</i>
   <i type="int" name="NGXF">    96</i>
   <i type="int" name="NGYF">    96</i>
   <i type="int" name="NGZF">    96</i>
   <i type="logical" name="ADDGRID"> F  </i>
  </separator>
  <separator name="ionic" >
   <i type="int" name="NSW">   100</i>
   <i type="int" name="IBRION">     2</i>
   <i type="int" name="MDALGO">     0</i>
   <i type="int" name="ISIF">     3</i>
   <i name="PSTRESS">      0.00000000</i>
   <i name="EDIFFG">     -0.01000000</i>
   <i type="int" name="NFREE">     1</i>
   <i name="POTIM">      0.50000000</i>
   <i name="SMASS">     -3.00000000</i>
   <i name="SCALEE">      1.00000000</i>
  </separator>
  <separator name="ionic md" >
   <i name="TEBEG">      0.00010000</i>
   <i name="TEEND">      0.00010000</i>
   <i type="int" name="NBLOCK">     1</i>
   <i type="int" name="KBLOCK">   100</i>
   <i type="int" name="NPACO">   256</i>
   <i name="APACO">     16.00000000</i>
  </separator>
  <separator name="symmetry" >
   <i type="int" name="ISYM">     2</i>
   <i name="SYMPREC">      0.00001000</i>
  </separator>
  <separator name="dos" >
   <i type="int" name="LORBIT">     0</i>
   <v name="RWIGS">     -1.00000000     -1.00000000     -1.00000000     -1.00000000     -1.00000000     -1.00000000     -1.00000000</v>
   <i type="int" name="NEDOS">   301</i>
   <i name="EMIN">     10.00000000</i>
   <i name="EMAX">    -10.00000000</i>
   <i name="EFERMI">      0.00000000</i>
  </separator>
  <separator name="writing" >
   <i type="int" name="NWRITE">     2</i>
   <i type="logical" name="LWAVE"> F  </i>
   <i type="logical" name="LDOWNSAMPLE"> F  </i>
   <i type="logical" name="LCHARG"> F  </i>
   <i type="logical" name="LPARD"> F  </i>
   <i type="logical" name="LVTOT"> F  </i>
   <i type="logical" name="LVHAR"> F  </i>
   <i type="logical" name="LELF"> F  </i>
   <i type="logical" name="LOPTICS"> F  </i>
   <v name="STM">      0.00000000      0.00000000      0.00000000      0.00000000      0.00000000      0.00000000      0.00000000</v>
  </separator>
  <separator name="performance" >
   <i type="int" name="NPAR">    24</i>
   <i type="int" name="NSIM">     4</i>
   <i type="int" name="NBLK">    -1</i>
   <i type="logical" name="LPLANE"> T  </i>
   <i type="logical" name="LSCALAPACK"> T  </i>
   <i type="logical" name="LSCAAWARE"> F  </i>
   <i type="logical" name="LSCALU"> F  </i>
   <i type="logical" name="LASYNC"> F  </i>
   <i type="logical" name="LORBITALREAL"> F  </i>
  </separator>
  <separator name="miscellaneous" >
   <i type="int" name="IDIOT">     3</i>
   <i type="int" name="ISPECIAL">     0</i>
   <i type="logical" name="LMUSIC"> F  </i>
   <v name="POMASS">    178.49000000     92.91000000     47.88000000     14.00100000     12.01100000     51.99600000    180.94800000</v>
   <v name="DARWINR">      0.00000000      0.00000000      0.00000000      0.00000000      0.00000000      0.00000000      0.00000000</v>
   <v name="DARWINV">      1.00000000      1.00000000      1.00000000      1.00000000      1.00000000      1.00000000      1.00000000</v>
   <i type="logical" name="LCORR"> T  </i>
  </separator>
  <i type="logical" name="GGA_COMPAT"> T  </i>
  <i type="logical" name="LBERRY"> F  </i>
  <i type="int" name="ICORELEVEL">     0</i>
  <i type="logical" name="LDAU"> F  </i>
  <i type="int" name="I_CONSTRAINED_M">     0</i>
  <separator name="electronic exchange-correlation" >
   <i type="string" name="GGA">--</i>
   <i type="int" name="VOSKOWN">     0</i>
   <i type="logical" name="LHFCALC"> F  </i>
   <i type="string" name="PRECFOCK"></i>
   <i type="logical" name="LSYMGRAD"> F  </i>
   <i type="logical" name="LHFONE"> F  </i>
   <i type="logical" name="LRHFCALC"> F  </i>
   <i type="logical" name="LTHOMAS"> F  </i>
   <i type="logical" name="LMODELHF"> F  </i>
   <i name="ENCUT4O">     -1.00000000</i>
   <i type="int" name="EXXOEP">     0</i>
   <i type="int" name="FOURORBIT">     0</i>
   <i name="AEXX">      0.00000000</i>
   <i name="HFALPHA">      0.00000000</i>
   <i name="MCALPHA">      0.00000000</i>
   <i name="ALDAX">      1.00000000</i>
   <i name="AGGAX">      1.00000000</i>
   <i name="ALDAC">      1.00000000</i>
   <i name="AGGAC">      1.00000000</i>
   <i type="int" name="NKREDX">     1</i>
   <i type="int" name="NKREDY">     1</i>
   <i type="int" name="NKREDZ">     1</i>
   <i type="logical" name="SHIFTRED"> F  </i>
   <i type="logical" name="ODDONLY"> F  </i>
   <i type="logical" name="EVENONLY"> F  </i>
   <i type="int" name="LMAXFOCK">     0</i>
   <i type="int" name="NMAXFOCKAE">     0</i>
   <i type="logical" name="LFOCKAEDFT"> F  </i>
   <i name="HFSCREEN">      0.00000000</i>
   <i name="HFSCREENC">      0.00000000</i>
   <i type="int" name="NBANDSGWLOW">     0</i>
  </separator>
  <separator name="vdW DFT" >
   <i type="logical" name="LUSE_VDW"> F  </i>
   <i name="Zab_VDW">     -0.84910000</i>
   <i name="PARAM1">      0.12340000</i>
   <i name="PARAM2">      1.00000000</i>
   <i name="PARAM3">      0.00000000</i>
  </separator>
  <separator name="model GW" >
   <i type="int" name="MODEL_GW">     0</i>
   <i name="MODEL_EPS0">      6.77734242</i>
   <i name="MODEL_ALPHA">      1.00000000</i>
  </separator>
  <separator name="linear response parameters" >
   <i type="logical" name="LEPSILON"> F  </i>
   <i type="logical" name="LRPA"> F  </i>
   <i type="logical" name="LNABLA"> F  </i>
   <i type="logical" name="LVEL"> F  </i>
   <i type="int" name="KINTER">     0</i>
   <i name="CSHIFT">      0.10000000</i>
   <i name="OMEGAMAX">     -1.00000000</i>
   <i name="DEG_THRESHOLD">      0.00200000</i>
   <i name="RTIME">     -0.10000000</i>
   <i name="WPLASMAI">      0.00000000</i>
   <v name="DFIELD">      0.00000000      0.00000000      0.00000000</v>
   <v name="WPLASMA">      0.00000000      0.00000000      0.00000000      0.00000000      0.00000000      0.00000000      0.00000000      0.00000000      0.00000000</v>
  </separator>
  <separator name="orbital magnetization" >
   <i type="logical" name="NUCIND"> F  </i>
   <v name="MAGPOS">      0.00000000      0.00000000      0.00000000</v>
   <i type="logical" name="LNICSALL"> T  </i>
   <i type="logical" name="ORBITALMAG"> F  </i>
   <i type="logical" name="LMAGBLOCH"> F  </i>
   <i type="logical" name="LCHIMAG"> F  </i>
   <i type="logical" name="LGAUGE"> T  </i>
   <i type="int" name="MAGATOM">     0</i>
   <v name="MAGDIPOL">      0.00000000      0.00000000      0.00000000</v>
   <v name="AVECCONST">      0.00000000      0.00000000      0.00000000</v>
  </separator>
  <separator name="response functions" >
   <i type="logical" name="LADDER"> F  </i>
   <i type="logical" name="LRPAFORCE"> F  </i>
   <i type="logical" name="LFXC"> F  </i>
   <i type="logical" name="LHARTREE"> T  </i>
   <i type="int" name="IBSE">     0</i>
   <v type="int" name="KPOINT">    -1     0     0     0</v>
   <i type="logical" name="LTCTE"> F  </i>
   <i type="logical" name="LTETE"> F  </i>
   <i type="logical" name="LTRIPLET"> F  </i>
   <i type="logical" name="LFXCEPS"> F  </i>
   <i type="logical" name="LFXHEG"> F  </i>
   <i type="int" name="NATURALO">     2</i>
   <i type="logical" name="L2ORDER"> F  </i>
   <i type="logical" name="LMP2LT"> F  </i>
   <i type="logical" name="LUSEW"> F  </i>
   <i name="ENCUTGW">     -2.00000000</i>
   <i name="ENCUTGWSOFT">     -2.00000000</i>
   <i name="ENCUTLF">     -1.00000000</i>
   <i type="int" name="LMAXMP2">    -1</i>
   <i name="SCISSOR">      0.00000000</i>
   <i type="int" name="NOMEGA">     0</i>
   <i type="int" name="NOMEGAR">     0</i>
   <i type="int" name="NBANDSGW">    -1</i>
   <i type="int" name="NBANDSO">    -1</i>
   <i type="int" name="NBANDSV">    -1</i>
   <i type="int" name="NELM">    60</i>
   <i type="int" name="NELMHF">     1</i>
   <i type="int" name="DIM">     3</i>
   <i type="int" name="ANTIRES">     0</i>
   <i name="OMEGAMAX">    -30.00000000</i>
   <i name="OMEGAMIN">    -30.00000000</i>
   <i name="OMEGATL">   -200.00000000</i>
   <i type="int" name="OMEGAGRID">   140</i>
   <i name="CSHIFT">     -0.10000000</i>
   <i type="logical" name="SELFENERGY"> F  </i>
   <i type="logical" name="LSPECTRAL"> F  </i>
   <i type="logical" name="LSPECTRALGW"> F  </i>
   <i type="logical" name="LSINGLES"> F  </i>
   <i type="logical" name="LFERMIGW"> F  </i>
   <i type="logical" name="ODDONLYGW"> F  </i>
   <i type="logical" name="EVENONLYGW"> F  </i>
   <i type="int" name="NKREDLFX">     1</i>
   <i type="int" name="NKREDLFY">     1</i>
   <i type="int" name="NKREDLFZ">     1</i>
   <i type="int" name="MAXMEM">  2800</i>
   <i type="int" name="TELESCOPE">     0</i>
   <i type="int" name="TAUPAR">     1</i>
   <i type="int" name="OMEGAPAR">    -1</i>
   <i name="LAMBDA">      1.00000000</i>
  </separator>
  <separator name="External order field" >
   <i name="OFIELD_KAPPA">      0.00000000</i>
   <v name="OFIELD_K">      0.00000000      0.00000000      0.00000000</v>
   <i name="OFIELD_Q6_NEAR">      0.00000000</i>
   <i name="OFIELD_Q6_FAR">      0.00000000</i>
   <i name="OFIELD_A">      0.00000000</i>
  </separator>
 </parameters>
 <atominfo>
  <atoms>      64 </atoms>
  <types>       7 </types>
  <array name="atoms" >
   <dimension dim="1">ion</dimension>
   <field type="string">element</field>
   <field type="int">atomtype</field>
   <set>
    <rc><c>Hf</c><c>   1</c></rc>
    <rc><c>Hf</c><c>   1</c></rc>
    <rc><c>Hf</c><c>   1</c></rc>
    <rc><c>Hf</c><c>   1</c></rc>
    <rc><c>Hf</c><c>   1</c></rc>
    <rc><c>Hf</c><c>   1</c></rc>
    <rc><c>Hf</c><c>   1</c></rc>
    <rc><c>Nb</c><c>   2</c></rc>
    <rc><c>Nb</c><c>   2</c></rc>
    <rc><c>Nb</c><c>   2</c></rc>
    <rc><c>Nb</c><c>   2</c></rc>
    <rc><c>Nb</c><c>   2</c></rc>
    <rc><c>Nb</c><c>   2</c></rc>
    <rc><c>Ti</c><c>   3</c></rc>
    <rc><c>Ti</c><c>   3</c></rc>
    <rc><c>Ti</c><c>   3</c></rc>
    <rc><c>Ti</c><c>   3</c></rc>
    <rc><c>Ti</c><c>   3</c></rc>
    <rc><c>Ti</c><c>   3</c></rc>
    <rc><c>Ti</c><c>   3</c></rc>
    <rc><c>N </c><c>   4</c></rc>
    <rc><c>N </c><c>   4</c></rc>
    <rc><c>N </c><c>   4</c></rc>
    <rc><c>N </c><c>   4</c></rc>
    <rc><c>N </c><c>   4</c></rc>
    <rc><c>N </c><c>   4</c></rc>
    <rc><c>N </c><c>   4</c></rc>
    <rc><c>N </c><c>   4</c></rc>
    <rc><c>N </c><c>   4</c></rc>
    <rc><c>N </c><c>   4</c></rc>
    <rc><c>N </c><c>   4</c></rc>
    <rc><c>N </c><c>   4</c></rc>
    <rc><c>N </c><c>   4</c></rc>
    <rc><c>C </c><c>   5</c></rc>
    <rc><c>C </c><c>   5</c></rc>
    <rc><c>C </c><c>   5</c></rc>
    <rc><c>C </c><c>   5</c></rc>
    <rc><c>C </c><c>   5</c></rc>
    <rc><c>C </c><c>   5</c></rc>
    <rc><c>C </c><c>   5</c></rc>
    <rc><c>C </c><c>   5</c></rc>
    <rc><c>C </c><c>   5</c></rc>
    <rc><c>C </c><c>   5</c></rc>
    <rc><c>C </c><c>   5</c></rc>
    <rc><c>C </c><c>   5</c></rc>
    <rc><c>C </c><c>   5</c></rc>
    <rc><c>C </c><c>   5</c></rc>
    <rc><c>C </c><c>   5</c></rc>
    <rc><c>C </c><c>   5</c></rc>
    <rc><c>C </c><c>   5</c></rc>
    <rc><c>C </c><c>   5</c></rc>
    <rc><c>C </c><c>   5</c></rc>
    <rc><c>Cr</c><c>   6</c></rc>
    <rc><c>Cr</c><c>   6</c></rc>
    <rc><c>Cr</c><c>   6</c></rc>
    <rc><c>Cr</c><c>   6</c></rc>
    <rc><c>Cr</c><c>   6</c></rc>
    <rc><c>Cr</c><c>   6</c></rc>
    <rc><c>Ta</c><c>   7</c></rc>
    <rc><c>Ta</c><c>   7</c></rc>
    <rc><c>Ta</c><c>   7</c></rc>
    <rc><c>Ta</c><c>   7</c></rc>
    <rc><c>Ta</c><c>   7</c></rc>
    <rc><c>Ta</c><c>   7</c></rc>
   </set>
  </array>
  <array name="atomtypes" >
   <dimension dim="1">type</dimension>
   <field type="int">atomspertype</field>
   <field type="string">element</field>
   <field>mass</field>
   <field>valence</field>
   <field type="string">pseudopotential</field>
   <set>
    <rc><c>   7</c><c>Hf</c><c>    178.49000000</c><c>     10.00000000</c><c> PAW_PBE Hf_pv 06Sep2000                </c></rc>
    <rc><c>   6</c><c>Nb</c><c>     92.91000000</c><c>     13.00000000</c><c> PAW_PBE Nb_sv 17Jan2003                </c></rc>
    <rc><c>   7</c><c>Ti</c><c>     47.88000000</c><c>     12.00000000</c><c> PAW_PBE Ti_sv 07Sep2000                </c></rc>
    <rc><c>  13</c><c>N </c><c>     14.00100000</c><c>      5.00000000</c><c> PAW_PBE N 08Apr2002                    </c></rc>
    <rc><c>  19</c><c>C </c><c>     12.01100000</c><c>      4.00000000</c><c> PAW_PBE C 08Apr2002                    </c></rc>
    <rc><c>   6</c><c>Cr</c><c>     51.99600000</c><c>     12.00000000</c><c> PAW_PBE Cr_pv 07Sep2000                </c></rc>
    <rc><c>   6</c><c>Ta</c><c>    180.94800000</c><c>     11.00000000</c><c> PAW_PBE Ta_pv 07Sep2000                </c></rc>
   </set>
  </array>
 </atominfo>
 <structure name="initialpos" >
  <crystal>
   <varray name="basis" >
    <v>       8.93249989       0.00000000       0.00000000 </v>
    <v>       0.00575300       9.05559834       0.00000000 </v>
    <v>       0.03210180      -0.01574346       8.93712807 </v>
   </varray>
   <i name="volume">    722.91652451 </i>
   <varray name="rec_basis" >
    <v>       0.11195074      -0.00007112      -0.00040225 </v>
    <v>       0.00000000       0.11042893       0.00019453 </v>
    <v>       0.00000000       0.00000000       0.11189277 </v>
   </varray>
  </crystal>
  <varray name="positions" >
   <v>       0.99688001       0.99204997       0.99924002 </v>
   <v>       0.25398003       0.99714995       0.24912000 </v>
   <v>       0.24803003       0.50165000       0.24955001 </v>
   <v>       0.50501006       0.49745998       0.99834003 </v>
   <v>       0.50479003       0.24631001       0.74710002 </v>
   <v>       0.99427992       0.50449999       0.49779000 </v>
   <v>       0.49950005       0.75481999       0.74817004 </v>
   <v>       0.99437004       0.23617001       0.26379999 </v>
   <v>       0.75718000       0.74102998       0.01100000 </v>
   <v>       0.00201000       0.25541000       0.73894001 </v>
   <v>       0.75307001       0.26163001       0.50533002 </v>
   <v>       0.99514004       0.74492004       0.74511997 </v>
   <v>       0.25679999       0.49462002       0.74545002 </v>
   <v>       0.24788999       0.24839000       0.99657997 </v>
   <v>       0.50833000       0.25676999       0.25376001 </v>
   <v>       0.74879004       0.98787999       0.26967001 </v>
   <v>       0.75719000       0.25603001       0.99591997 </v>
   <v>       0.24762001       0.74973999       0.99974006 </v>
   <v>       0.25272001       0.24823001       0.50015003 </v>
   <v>       0.24457999       0.75048999       0.49983999 </v>
   <v>       0.24982001       0.24942998       0.24825000 </v>
   <v>       0.26146999       0.99984002       0.99295996 </v>
   <v>       0.00281000       0.25024000       0.00130000 </v>
   <v>       0.75313998       0.24617000       0.25492002 </v>
   <v>       0.74767001       0.99748000       0.01202000 </v>
   <v>       0.50714994       0.99977000       0.24673000 </v>
   <v>       0.99051999       0.48088002       0.24100998 </v>
   <v>       0.50519005       0.76130999       0.00855000 </v>
   <v>       0.98896989       0.00202000       0.73708999 </v>
   <v>       0.75744996       0.24437997       0.74896999 </v>
   <v>       0.73632001       0.00417000       0.51063000 </v>
   <v>       0.50563996       0.23264999       0.49544997 </v>
   <v>       0.50008998       0.00061000       0.73471998 </v>
   <v>       0.99720000       0.99771992       0.25899999 </v>
   <v>       0.50427997       0.24673000       0.00262000 </v>
   <v>       0.25133999       0.74958002       0.24910999 </v>
   <v>       0.24328000       0.50072997       0.99510994 </v>
   <v>       0.99837005       0.74313996       0.00460000 </v>
   <v>       0.75633000       0.73891003       0.25767000 </v>
   <v>       0.75839004       0.50315998       0.00288000 </v>
   <v>       0.50700002       0.50333002       0.25878999 </v>
   <v>       0.24900999       0.25315000       0.74854000 </v>
   <v>       0.24446000       0.99823996       0.50287998 </v>
   <v>       0.99804009       0.24229999       0.50128003 </v>
   <v>       0.24177002       0.75340997       0.75018002 </v>
   <v>       0.25841001       0.50062002       0.50129001 </v>
   <v>       0.99000004       0.76215003       0.49746000 </v>
   <v>       0.99203996       0.50055999       0.75138002 </v>
   <v>       0.75036005       0.74888000       0.74756004 </v>
   <v>       0.74036002       0.50197000       0.50067003 </v>
   <v>       0.50575006       0.74958002       0.49720000 </v>
   <v>       0.50501003       0.50217998       0.73912003 </v>
   <v>       0.51588997       0.01358000       0.98075008 </v>
   <v>       0.99841994       0.50976998       0.98613004 </v>
   <v>       0.50379003       0.73926997       0.25905001 </v>
   <v>       0.23780002       0.01082000       0.74607998 </v>
   <v>       0.47957999       0.98308000       0.49717999 </v>
   <v>       0.74279003       0.97869994       0.76450995 </v>
   <v>       0.99864998       0.77573999       0.26102000 </v>
   <v>       0.73551001       0.51468004       0.26666001 </v>
   <v>       0.02362000       0.99783001       0.49557002 </v>
   <v>       0.50539000       0.52833005       0.49917999 </v>
   <v>       0.73876003       0.52828003       0.73814999 </v>
   <v>       0.75400003       0.72937999       0.49116997 </v>
  </varray>
 </structure>
 <calculation>
  <scstep>
   <time name="dav">   21.59   22.08</time>
   <time name="total">   21.63   22.13</time>
   <energy>
    <i name="alphaZ">   3949.84308639 </i>
    <i name="ewald"> -41676.45315846 </i>
    <i name="hartreedc">  -8651.48405454 </i>
    <i name="XCdc">   1921.19745510 </i>
    <i name="pawpsdc">  30516.49205577 </i>
    <i name="pawaedc"> -30405.07122639 </i>
    <i name="eentropy">     -0.07332509 </i>
    <i name="bandstr">   2348.99521585 </i>
    <i name="atom">  48854.39165400 </i>
    <i name="e_fr_energy">   6857.83770262 </i>
    <i name="e_wo_entrp">   6857.91102771 </i>
    <i name="e_0_energy">   6857.87436516 </i>
   </energy>
  </scstep>
  <scstep>
   <time name="dav">   21.93   22.56</time>
   <time name="total">   21.93   22.56</time>
   <energy>
    <i name="e_fr_energy">    489.73837603 </i>
    <i name="e_wo_entrp">    489.85143526 </i>
    <i name="e_0_energy">    489.79490564 </i>
   </energy>
  </scstep>
  <scstep>
   <time name="dav">   32.55   33.55</time>
   <time name="total">   32.55   33.55</time>
   <energy>
    <i name="e_fr_energy">   -638.35895998 </i>
    <i name="e_wo_entrp">   -638.27128722 </i>
    <i name="e_0_energy">   -638.31512360 </i>
   </energy>
  </scstep>
  <scstep>
   <time name="dav">   35.09   35.72</time>
   <time name="total">   35.10   35.72</time>
   <energy>
    <i name="e_fr_energy">   -781.29643623 </i>
    <i name="e_wo_entrp">   -781.21356884 </i>
    <i name="e_0_energy">   -781.25500253 </i>
   </energy>
  </scstep>
  <scstep>
   <time name="dav">   39.76   39.82</time>
   <time name="total">   40.03   40.09</time>
   <energy>
    <i name="e_fr_energy">   -799.29257642 </i>
    <i name="e_wo_entrp">   -799.20080497 </i>
    <i name="e_0_energy">   -799.24669069 </i>
   </energy>
  </scstep>
  <scstep>
   <time name="diag">    1.82    1.82</time>
   <time name="diis">   19.86   19.89</time>
   <time name="orth">    0.44    0.44</time>
   <time name="total">   22.42   22.46</time>
   <energy>
    <i name="e_fr_energy">   -963.05307904 </i>
    <i name="e_wo_entrp">   -962.80951058 </i>
    <i name="e_0_energy">   -962.93129481 </i>
   </energy>
  </scstep>
  <scstep>
   <time name="diag">    1.82    1.82</time>
   <time name="diis">   23.96   23.97</time>
   <time name="orth">    0.44    0.44</time>
   <time name="total">   26.50   26.52</time>
   <energy>
    <i name="e_fr_energy">   -656.79914231 </i>
    <i name="e_wo_entrp">   -656.66676989 </i>
    <i name="e_0_energy">   -656.73295610 </i>
   </energy>
  </scstep>
  <scstep>
   <time name="diag">    1.82    1.82</time>
   <time name="diis">   22.79   22.82</time>
   <time name="orth">    0.44    0.45</time>
   <time name="total">   25.33   25.37</time>
   <energy>
    <i name="e_fr_energy">   -653.05843050 </i>
    <i name="e_wo_entrp">   -652.90651449 </i>
    <i name="e_0_energy">   -652.98247249 </i>
   </energy>
  </scstep>
  <scstep>
   <time name="diag">    1.80    1.84</time>
   <time name="diis">   22.44   23.21</time>
   <time name="orth">    0.44    0.44</time>
   <time name="total">   24.97   25.79</time>
   <energy>
    <i name="e_fr_energy">   -651.32349827 </i>
    <i name="e_wo_entrp">   -651.20492012 </i>
    <i name="e_0_energy">   -651.26420920 </i>
   </energy>
  </scstep>
  <scstep>
   <time name="diag">    1.81    1.85</time>
   <time name="diis">   23.27   23.35</time>
   <time name="orth">    0.44    0.44</time>
   <time name="total">   25.80   25.94</time>
   <energy>
    <i name="e_fr_energy">   -645.90102558 </i>
    <i name="e_wo_entrp">   -645.75315165 </i>
    <i name="e_0_energy">   -645.82708862 </i>
   </energy>
  </scstep>
  <scstep>
   <time name="diag">    1.82    1.82</time>
   <time name="diis">   22.97   23.03</time>
   <time name="orth">    0.44    0.44</time>
   <time name="total">   25.51   25.58</time>
   <energy>
    <i name="e_fr_energy">   -648.47493391 </i>
    <i name="e_wo_entrp">   -648.30878355 </i>
    <i name="e_0_energy">   -648.39185873 </i>
   </energy>
  </scstep>
  <scstep>
   <time name="diag">    1.82    1.82</time>
   <time name="diis">   22.34   22.37</time>
   <time name="orth">    0.46    0.47</time>
   <time name="total">   24.92   24.96</time>
   <energy>
    <i name="e_fr_energy">   -645.70340939 </i>
    <i name="e_wo_entrp">   -645.54333085 </i>
    <i name="e_0_energy">   -645.62337012 </i>
   </energy>
  </scstep>
  <scstep>
   <time name="diag">    1.83    1.83</time>
   <time name="diis">   22.87   22.91</time>
   <time name="orth">    0.44    0.44</time>
   <time name="total">   25.43   25.47</time>
   <energy>
    <i name="e_fr_energy">   -645.89896871 </i>
    <i name="e_wo_entrp">   -645.74908535 </i>
    <i name="e_0_energy">   -645.82402703 </i>
   </energy>
  </scstep>
  <scstep>
   <time name="diag">    1.82    1.82</time>
   <time name="diis">   21.90   22.02</time>
   <time name="orth">    0.44    0.44</time>
   <time name="total">   24.45   24.58</time>
   <energy>
    <i name="e_fr_energy">   -645.14283793 </i>
    <i name="e_wo_entrp">   -644.99065771 </i>
    <i name="e_0_energy">   -645.06674782 </i>
   </energy>
  </scstep>
  <scstep>
   <time name="diag">    1.89    1.92</time>
   <time name="diis">   21.63   21.70</time>
   <time name="orth">    0.44    0.44</time>
   <time name="total">   24.27   24.37</time>
   <energy>
    <i name="e_fr_energy">   -645.50695885 </i>
    <i name="e_wo_entrp">   -645.33783693 </i>
    <i name="e_0_energy">   -645.42239789 </i>
   </energy>
  </scstep>
  <scstep>
   <time name="diag">    1.85    1.87</time>
   <time name="diis">   22.93   22.98</time>
   <time name="orth">    0.44    0.44</time>
   <time name="total">   25.51   25.59</time>
   <energy>
    <i name="e_fr_energy">   -644.79268375 </i>
    <i name="e_wo_entrp">   -644.63983097 </i>
    <i name="e_0_energy">   -644.71625736 </i>
   </energy>
  </scstep>
  <scstep>
   <time name="diag">    1.82    1.82</time>
   <time name="diis">   22.55   22.72</time>
   <time name="orth">    0.44    0.44</time>
   <time name="total">   25.10   25.28</time>
   <energy>
    <i name="e_fr_energy">   -644.86790201 </i>
    <i name="e_wo_entrp">   -644.69917425 </i>
    <i name="e_0_energy">   -644.78353813 </i>
   </energy>
  </scstep>
  <scstep>
   <time name="diag">    1.82    1.82</time>
   <time name="diis">   23.07   23.10</time>
   <time name="orth">    0.44    0.44</time>
   <time name="total">   25.62   25.65</time>
   <energy>
    <i name="e_fr_energy">   -644.72197263 </i>
    <i name="e_wo_entrp">   -644.56664014 </i>
    <i name="e_0_energy">   -644.64430638 </i>
   </energy>
  </scstep>
  <scstep>
   <time name="diag">    1.82    1.82</time>
   <time name="diis">   23.16   23.60</time>
   <time name="orth">    0.44    0.44</time>
   <time name="total">   25.71   26.16</time>
   <energy>
    <i name="e_fr_energy">   -644.74741205 </i>
    <i name="e_wo_entrp">   -644.59273097 </i>
    <i name="e_0_energy">   -644.67007151 </i>
   </energy>
  </scstep>
  <scstep>
   <time name="diag">    1.83    1.83</time>
   <time name="diis">   22.36   22.44</time>
   <time name="orth">    0.44    0.44</time>
   <time name="total">   24.93   25.01</time>
   <energy>
    <i name="e_fr_energy">   -644.72466031 </i>
    <i name="e_wo_entrp">   -644.56723943 </i>
    <i name="e_0_energy">   -644.64594987 </i>
   </energy>
  </scstep>
  <scstep>
   <time name="diag">    1.81    1.83</time>
   <time name="diis">   22.88   22.92</time>
   <time name="orth">    0.45    0.45</time>
   <time name="total">   25.46   25.52</time>
   <energy>
    <i name="e_fr_energy">   -644.72564451 </i>
    <i name="e_wo_entrp">   -644.56789068 </i>
    <i name="e_0_energy">   -644.64676760 </i>
   </energy>
  </scstep>
  <scstep>
   <time name="diag">    1.81    1.81</time>
   <time name="diis">   22.86   22.87</time>
   <time name="orth">    0.44    0.44</time>
   <time name="total">   25.41   25.43</time>
   <energy>
    <i name="e_fr_energy">   -644.72917603 </i>
    <i name="e_wo_entrp">   -644.57185004 </i>
    <i name="e_0_energy">   -644.65051304 </i>
   </energy>
  </scstep>
  <scstep>
   <time name="diag">    1.83    1.85</time>
   <time name="diis">   23.67   23.68</time>
   <time name="orth">    0.44    0.44</time>
   <time name="total">   26.23   26.27</time>
   <energy>
    <i name="e_fr_energy">   -644.73237492 </i>
    <i name="e_wo_entrp">   -644.57490881 </i>
    <i name="e_0_energy">   -644.65364186 </i>
   </energy>
  </scstep>
  <scstep>
   <time name="diag">    1.82    1.82</time>
   <time name="diis">   23.75   23.83</time>
   <time name="orth">    0.44    0.44</time>
   <time name="total">   26.30   26.38</time>
   <energy>
    <i name="e_fr_energy">   -644.73433211 </i>
    <i name="e_wo_entrp">   -644.57691618 </i>
    <i name="e_0_energy">   -644.65562414 </i>
   </energy>
  </scstep>
  <scstep>
   <time name="diag">    1.79    1.83</time>
   <time name="diis">   21.44   22.19</time>
   <time name="orth">    0.43    0.44</time>
   <time name="total">   23.96   24.75</time>
   <energy>
    <i name="e_fr_energy">   -644.73558791 </i>
    <i name="e_wo_entrp">   -644.57823483 </i>
    <i name="e_0_energy">   -644.65691137 </i>
   </energy>
  </scstep>
  <scstep>
   <time name="diag">    1.83    1.83</time>
   <time name="diis">   21.24   21.28</time>
   <time name="orth">    0.44    0.44</time>
   <time name="total">   23.80   23.84</time>
   <energy>
    <i name="e_fr_energy">   -644.73649714 </i>
    <i name="e_wo_entrp">   -644.57908665 </i>
    <i name="e_0_energy">   -644.65779190 </i>
   </energy>
  </scstep>
  <scstep>
   <time name="diag">    1.83    1.83</time>
   <time name="diis">   20.30   20.38</time>
   <time name="orth">    0.44    0.44</time>
   <time name="total">   22.87   22.95</time>
   <energy>
    <i name="e_fr_energy">   -644.73704973 </i>
    <i name="e_wo_entrp">   -644.57962603 </i>
    <i name="e_0_energy">   -644.65833788 </i>
   </energy>
  </scstep>
  <scstep>
   <time name="diag">    1.84    1.84</time>
   <time name="diis">   19.18   19.20</time>
   <time name="orth">    0.44    0.44</time>
   <time name="total">   21.76   21.78</time>
   <energy>
    <i name="e_fr_energy">   -644.73747518 </i>
    <i name="e_wo_entrp">   -644.58000366 </i>
    <i name="e_0_energy">   -644.65873942 </i>
   </energy>
  </scstep>
  <scstep>
   <time name="diag">    1.82    1.83</time>
   <time name="diis">   19.23   19.31</time>
   <time name="orth">    0.44    0.44</time>
   <time name="total">   21.79   21.87</time>
   <energy>
    <i name="e_fr_energy">   -644.73773352 </i>
    <i name="e_wo_entrp">   -644.58028281 </i>
    <i name="e_0_energy">   -644.65900816 </i>
   </energy>
  </scstep>
  <scstep>
   <time name="diag">    1.83    1.83</time>
   <time name="diis">   19.19   19.20</time>
   <time name="orth">    0.44    0.44</time>
   <time name="total">   21.76   21.78</time>
   <energy>
    <i name="e_fr_energy">   -644.73792975 </i>
    <i name="e_wo_entrp">   -644.58045492 </i>
    <i name="e_0_energy">   -644.65919234 </i>
   </energy>
  </scstep>
  <scstep>
   <time name="diag">    1.82    1.82</time>
   <time name="diis">   18.65   18.68</time>
   <time name="orth">    0.44    0.44</time>
   <time name="total">   21.20   21.23</time>
   <energy>
    <i name="e_fr_energy">   -644.73805219 </i>
    <i name="e_wo_entrp">   -644.58057781 </i>
    <i name="e_0_energy">   -644.65931500 </i>
   </energy>
  </scstep>
  <scstep>
   <time name="diag">    1.82    1.87</time>
   <time name="diis">   18.18   18.80</time>
   <time name="orth">    0.44    0.45</time>
   <time name="total">   20.74   21.43</time>
   <energy>
    <i name="e_fr_energy">   -644.73814242 </i>
    <i name="e_wo_entrp">   -644.58066621 </i>
    <i name="e_0_energy">   -644.65940432 </i>
   </energy>
  </scstep>
  <scstep>
   <time name="diag">    1.81    1.81</time>
   <time name="diis">   18.53   18.54</time>
   <time name="orth">    0.44    0.44</time>
   <time name="total">   21.07   21.08</time>
   <energy>
    <i name="e_fr_energy">   -644.73820135 </i>
    <i name="e_wo_entrp">   -644.58072403 </i>
    <i name="e_0_energy">   -644.65946269 </i>
   </energy>
  </scstep>
  <scstep>
   <time name="diag">    1.79    1.83</time>
   <time name="diis">   17.94   18.17</time>
   <time name="orth">    0.48    0.48</time>
   <time name="total">   20.53   20.80</time>
   <energy>
    <i name="e_fr_energy">   -644.73824473 </i>
    <i name="e_wo_entrp">   -644.58076304 </i>
    <i name="e_0_energy">   -644.65950389 </i>
   </energy>
  </scstep>
  <scstep>
   <time name="diag">    1.86    1.88</time>
   <time name="diis">   17.82   17.86</time>
   <time name="orth">    0.44    0.44</time>
   <time name="total">   20.42   20.47</time>
   <energy>
    <i name="e_fr_energy">   -644.73827420 </i>
    <i name="e_wo_entrp">   -644.58079263 </i>
    <i name="e_0_energy">   -644.65953341 </i>
   </energy>
  </scstep>
  <scstep>
   <time name="diag">    1.80    1.83</time>
   <time name="diis">   16.94   17.23</time>
   <time name="orth">    0.43    0.44</time>
   <time name="total">   19.47   19.81</time>
   <energy>
    <i name="e_fr_energy">   -644.73829511 </i>
    <i name="e_wo_entrp">   -644.58081155 </i>
    <i name="e_0_energy">   -644.65955333 </i>
   </energy>
  </scstep>
  <scstep>
   <time name="diag">    1.83    1.83</time>
   <time name="diis">   17.36   17.37</time>
   <time name="orth">    0.45    0.45</time>
   <time name="total">   19.94   19.96</time>
   <energy>
    <i name="e_fr_energy">   -644.73830927 </i>
    <i name="e_wo_entrp">   -644.58082713 </i>
    <i name="e_0_energy">   -644.65956820 </i>
   </energy>
  </scstep>
  <scstep>
   <time name="diag">    1.86    1.86</time>
   <time name="diis">   16.35   16.35</time>
   <time name="orth">    0.44    0.44</time>
   <time name="total">   18.95   18.96</time>
   <energy>
    <i name="e_fr_energy">   -644.73831937 </i>
    <i name="e_wo_entrp">   -644.58083671 </i>
    <i name="e_0_energy">   -644.65957804 </i>
   </energy>
  </scstep>
  <scstep>
   <time name="diag">    1.82    1.82</time>
   <time name="diis">   15.65   15.66</time>
   <time name="orth">    0.44    0.44</time>
   <time name="total">   17.94   17.95</time>
   <energy>
    <i name="alphaZ">   3949.84308639 </i>
    <i name="ewald"> -41676.45315846 </i>
    <i name="hartreedc">  -8074.07065932 </i>
    <i name="XCdc">   1907.26540813 </i>
    <i name="pawpsdc">  31394.51628496 </i>
    <i name="pawaedc"> -31315.04784282 </i>
    <i name="eentropy">     -0.15748228 </i>
    <i name="bandstr">  -5685.02561692 </i>
    <i name="atom">  48854.39165400 </i>
    <i name="e_fr_energy">   -644.73832632 </i>
    <i name="e_wo_entrp">   -644.58084404 </i>
    <i name="e_0_energy">   -644.65958518 </i>
   </energy>
  </scstep>
  <structure>
   <crystal>
    <varray name="basis" >
     <v>       8.93249989       0.00000000       0.00000000 </v>
     <v>       0.00575300       9.05559834       0.00000000 </v>
     <v>       0.03210180      -0.01574346       8.93712807 </v>
    </varray>
    <i name="volume">    722.91652451 </i>
    <varray name="rec_basis" >
     <v>       0.11195074      -0.00007112      -0.00040225 </v>
     <v>       0.00000000       0.11042893       0.00019453 </v>
     <v>       0.00000000       0.00000000       0.11189277 </v>
    </varray>
   </crystal>
   <varray name="positions" >
    <v>       0.99688001       0.99204997       0.99924002 </v>
    <v>       0.25398003       0.99714995       0.24912000 </v>
    <v>       0.24803003       0.50165000       0.24955001 </v>
    <v>       0.50501006       0.49745998       0.99834003 </v>
    <v>       0.50479003       0.24631001       0.74710002 </v>
    <v>       0.99427992       0.50449999       0.49779000 </v>
    <v>       0.49950005       0.75481999       0.74817004 </v>
    <v>       0.99437004       0.23617001       0.26379999 </v>
    <v>       0.75718000       0.74102998       0.01100000 </v>
    <v>       0.00201000       0.25541000       0.73894001 </v>
    <v>       0.75307001       0.26163001       0.50533002 </v>
    <v>       0.99514004       0.74492004       0.74511997 </v>
    <v>       0.25679999       0.49462002       0.74545002 </v>
    <v>       0.24788999       0.24839000       0.99657997 </v>
    <v>       0.50833000       0.25676999       0.25376001 </v>
    <v>       0.74879004       0.98787999       0.26967001 </v>
    <v>       0.75719000       0.25603001       0.99591997 </v>
    <v>       0.24762001       0.74973999       0.99974006 </v>
    <v>       0.25272001       0.24823001       0.50015003 </v>
    <v>       0.24457999       0.75048999       0.49983999 </v>
    <v>       0.24982001       0.24942998       0.24825000 </v>
    <v>       0.26146999       0.99984002       0.99295996 </v>
    <v>       0.00281000       0.25024000       0.00130000 </v>
    <v>       0.75313998       0.24617000       0.25492002 </v>
    <v>       0.74767001       0.99748000       0.01202000 </v>
    <v>       0.50714994       0.99977000       0.24673000 </v>
    <v>       0.99051999       0.48088002       0.24100998 </v>
    <v>       0.50519005       0.76130999       0.00855000 </v>
    <v>       0.98896989       0.00202000       0.73708999 </v>
    <v>       0.75744996       0.24437997       0.74896999 </v>
    <v>       0.73632001       0.00417000       0.51063000 </v>
    <v>       0.50563996       0.23264999       0.49544997 </v>
    <v>       0.50008998       0.00061000       0.73471998 </v>
    <v>       0.99720000       0.99771992       0.25899999 </v>
    <v>       0.50427997       0.24673000       0.00262000 </v>
    <v>       0.25133999       0.74958002       0.24910999 </v>
    <v>       0.24328000       0.50072997       0.99510994 </v>
    <v>       0.99837005       0.74313996       0.00460000 </v>
    <v>       0.75633000       0.73891003       0.25767000 </v>
    <v>       0.75839004       0.50315998       0.00288000 </v>
    <v>       0.50700002       0.50333002       0.25878999 </v>
    <v>       0.24900999       0.25315000       0.74854000 </v>
    <v>       0.24446000       0.99823996       0.50287998 </v>
    <v>       0.99804009       0.24229999       0.50128003 </v>
    <v>       0.24177002       0.75340997       0.75018002 </v>
    <v>       0.25841001       0.50062002       0.50129001 </v>
    <v>       0.99000004       0.76215003       0.49746000 </v>
    <v>       0.99203996       0.50055999       0.75138002 </v>
    <v>       0.75036005       0.74888000       0.74756004 </v>
    <v>       0.74036002       0.50197000       0.50067003 </v>
    <v>       0.50575006       0.74958002       0.49720000 </v>
    <v>       0.50501003       0.50217998       0.73912003 </v>
    <v>       0.51588997       0.01358000       0.98075008 </v>
    <v>       0.99841994       0.50976998       0.98613004 </v>
    <v>       0.50379003       0.73926997       0.25905001 </v>
    <v>       0.23780002       0.01082000       0.74607998 </v>
    <v>       0.47957999       0.98308000       0.49717999 </v>
    <v>       0.74279003       0.97869994       0.76450995 </v>
    <v>       0.99864998       0.77573999       0.26102000 </v>
    <v>       0.73551001       0.51468004       0.26666001 </v>
    <v>       0.02362000       0.99783001       0.49557002 </v>
    <v>       0.50539000       0.52833005       0.49917999 </v>
    <v>       0.73876003       0.52828003       0.73814999 </v>
    <v>       0.75400003       0.72937999       0.49116997 </v>
   </varray>
  </structure>
  <varray name="forces" >
   <v>      -0.22201832       0.98293212      -0.94896403 </v>
   <v>       2.48158156       0.57829161      -0.74183294 </v>
   <v>      -0.20155644      -0.38987175      -0.42606044 </v>
   <v>      -0.67627258       0.13976109       0.58128724 </v>
   <v>      -0.05254797      -1.56141855      -0.20629819 </v>
   <v>       1.20178290      -0.97586139       0.19476829 </v>
   <v>      -0.98577966       2.34697571       0.86387277 </v>
   <v>      -0.18375241       0.17498512      -0.75371101 </v>
   <v>      -0.55399726       0.74063713      -0.08759770 </v>
   <v>       0.26880117      -0.41955581       0.59998236 </v>
   <v>      -0.49917364      -1.08243602      -0.46385465 </v>
   <v>       0.94759737       0.48945511       0.83756870 </v>
   <v>      -0.96062293       0.16374073       0.51395100 </v>
   <v>       0.11247052       0.06836928      -0.45388253 </v>
   <v>       0.19259191      -0.81198117      -0.21006055 </v>
   <v>      -1.57499141       0.64278306      -0.08255671 </v>
   <v>      -0.32581446      -0.16104258      -0.01052363 </v>
   <v>      -0.13458208      -0.23574302      -0.16646155 </v>
   <v>       0.18475907      -0.14678360       0.36223471 </v>
   <v>       0.69003124       0.26881192       0.16436000 </v>
   <v>       0.27363715      -0.02815971       0.00972823 </v>
   <v>      -0.62498319       0.10029272       0.16531972 </v>
   <v>      -0.07571157      -0.36754632      -0.17509694 </v>
   <v>      -0.66841364      -0.01262649      -0.34673905 </v>
   <v>      -0.21222836       0.40775734      -0.81075928 </v>
   <v>       0.09053495      -0.07541393       0.51548506 </v>
   <v>       0.51380382       0.76686454       0.56499422 </v>
   <v>      -0.36325863      -0.41543857      -0.57110600 </v>
   <v>       0.18724076       0.00622439       1.10046976 </v>
   <v>      -0.71084027       0.16524380       0.66758622 </v>
   <v>       0.31207273      -0.33436633      -0.88413294 </v>
   <v>      -0.61011796       0.34695500      -0.06803876 </v>
   <v>       0.45533972       0.01193463       0.61082330 </v>
   <v>      -0.24677776       1.08414346      -1.38987291 </v>
   <v>       0.19994815      -0.40726419       0.05306881 </v>
   <v>       0.07521237      -0.06474785      -0.03219657 </v>
   <v>       0.05587986       0.10783100       0.33965754 </v>
   <v>       0.74262606      -0.09898542      -0.32818674 </v>
   <v>      -0.82899233       2.14275983      -1.21271540 </v>
   <v>       0.07604095      -0.64217183      -0.15030834 </v>
   <v>      -1.56349174      -0.45468582      -1.17259687 </v>
   <v>       0.19348120      -0.68982952       0.01295499 </v>
   <v>       2.77426137      -0.04530326       0.32724047 </v>
   <v>       0.78579693       0.82367457       0.04995514 </v>
   <v>       0.31826999       0.09415593       0.03469224 </v>
   <v>      -0.77469422       0.05837682      -0.49633044 </v>
   <v>       1.60067356      -1.22989090       0.75203254 </v>
   <v>       0.49866236       0.02536655       0.36401243 </v>
   <v>      -0.39302927       2.25640281       0.65326221 </v>
   <v>       1.49239472      -1.18206937       0.27906412 </v>
   <v>      -1.25945837       2.25957614      -0.46803978 </v>
   <v>      -0.93085801      -0.08897223       1.27653704 </v>
   <v>       0.61320018       0.43230159       0.09710649 </v>
   <v>       0.22329138       0.32125811      -0.65343413 </v>
   <v>      -0.26285019       0.66531145      -0.27664457 </v>
   <v>       0.34417435       0.48890456       0.00437589 </v>
   <v>      -0.27169498      -0.21555064       0.12581757 </v>
   <v>      -0.51701600      -0.61007748       0.39015540 </v>
   <v>       1.01265703      -2.93740896      -1.68507984 </v>
   <v>       2.18048275      -2.89945516      -2.80833231 </v>
   <v>      -2.73481571       1.03947203       2.38795940 </v>
   <v>      -2.76976210      -2.70567869      -0.15117983 </v>
   <v>       1.89357672      -3.54832919       2.02001975 </v>
   <v>      -0.80277139       4.63711562       1.31225101 </v>
  </varray>
  <varray name="stress" >
   <v>    -108.53929473       8.01161061      -3.30361453 </v>
   <v>       8.01160944    -111.43506025      -0.65100592 </v>
   <v>      -3.30361388      -0.65100685    -108.35919277 </v>
  </varray>
  <energy>
   <i name="e_fr_energy">   -644.73832632 </i>
   <i name="e_wo_entrp">   -644.65958518 </i>
   <i name="e_0_energy">     -0.15748228 </i>
  </energy>
  <time name="totalsc">  993.13 1001.01</time>
 </calculation>
 <calculation>
  <scstep>
   <time name="dav">   28.41   29.27</time>
   <time name="total">   28.72   29.58</time>
   <energy>
    <i name="alphaZ">   4425.96833458 </i>
    <i name="ewald"> -43267.89511500 </i>
    <i name="hartreedc">  -8409.86017616 </i>
    <i name="XCdc">   1983.84461296 </i>
    <i name="pawpsdc">  31394.50550537 </i>
    <i name="pawaedc"> -31315.04082831 </i>
    <i name="eentropy">     -0.10521580 </i>
    <i name="bandstr">  -4344.03657464 </i>
    <i name="atom">  48854.39165400 </i>
    <i name="e_fr_energy">   -678.22780302 </i>
    <i name="e_wo_entrp">   -678.12258721 </i>
    <i name="e_0_energy">   -678.17519511 </i>
   </energy>
  </scstep>
  <scstep>
   <time name="diag">    1.79    1.84</time>
   <time name="diis">   18.00   18.61</time>
   <time name="orth">    0.43    0.44</time>
   <time name="total">   20.51   21.18</time>
   <energy>
    <i name="e_fr_energy">   -793.78828130 </i>
    <i name="e_wo_entrp">   -793.65481785 </i>
    <i name="e_0_energy">   -793.72154957 </i>
   </energy>
  </scstep>
  <scstep>
   <time name="diag">    1.79    1.83</time>
   <time name="diis">   20.89   21.57</time>
   <time name="orth">    0.43    0.44</time>
   <time name="total">   23.41   24.15</time>
   <energy>
    <i name="e_fr_energy">   -653.92521312 </i>
    <i name="e_wo_entrp">   -653.78947332 </i>
    <i name="e_0_energy">   -653.85734322 </i>
   </energy>
  </scstep>
  <scstep>
   <time name="diag">    1.79    1.83</time>
   <time name="diis">   20.23   20.91</time>
   <time name="orth">    0.45    0.46</time>
   <time name="total">   22.76   23.49</time>
   <energy>
    <i name="e_fr_energy">   -664.32451068 </i>
    <i name="e_wo_entrp">   -664.22607928 </i>
    <i name="e_0_energy">   -664.27529498 </i>
   </energy>
  </scstep>
  <scstep>
   <time name="diag">    1.80    1.85</time>
   <time name="diis">   19.83   20.51</time>
   <time name="orth">    0.43    0.44</time>
   <time name="total">   22.36   23.10</time>
   <energy>
    <i name="e_fr_energy">   -650.75388035 </i>
    <i name="e_wo_entrp">   -650.62418669 </i>
    <i name="e_0_energy">   -650.68903352 </i>
   </energy>
  </scstep>
  <scstep>
   <time name="diag">    1.82    1.82</time>
   <time name="diis">   23.01   23.03</time>
   <time name="orth">    0.44    0.44</time>
   <time name="total">   25.56   25.58</time>
   <energy>
    <i name="e_fr_energy">   -650.71268038 </i>
    <i name="e_wo_entrp">   -650.60335541 </i>
    <i name="e_0_energy">   -650.65801790 </i>
   </energy>
  </scstep>
  <scstep>
   <time name="diag">    1.83    1.83</time>
   <time name="diis">   21.78   21.81</time>
   <time name="orth">    0.44    0.44</time>
   <time name="total">   24.34   24.38</time>
   <energy>
    <i name="e_fr_energy">   -648.16046108 </i>
    <i name="e_wo_entrp">   -648.01062225 </i>
    <i name="e_0_energy">   -648.08554167 </i>
   </energy>
  </scstep>
  <scstep>
   <time name="diag">    1.80    1.84</time>
   <time name="diis">   21.75   22.47</time>
   <time name="orth">    0.44    0.44</time>
   <time name="total">   24.29   25.06</time>
   <energy>
    <i name="e_fr_energy">   -648.81379940 </i>
    <i name="e_wo_entrp">   -648.68071798 </i>
    <i name="e_0_energy">   -648.74725869 </i>
   </energy>
  </scstep>
  <scstep>
   <time name="diag">    1.79    1.83</time>
   <time name="diis">   21.76   22.51</time>
   <time name="orth">    0.48    0.48</time>
   <time name="total">   24.33   25.13</time>
   <energy>
    <i name="e_fr_energy">   -647.99917429 </i>
    <i name="e_wo_entrp">   -647.85680627 </i>
    <i name="e_0_energy">   -647.92799028 </i>
   </energy>
  </scstep>
  <scstep>
   <time name="diag">    1.80    1.83</time>
   <time name="diis">   24.49   24.50</time>
   <time name="orth">    0.44    0.44</time>
   <time name="total">   27.02   27.06</time>
   <energy>
    <i name="e_fr_energy">   -648.17719164 </i>
    <i name="e_wo_entrp">   -648.03471175 </i>
    <i name="e_0_energy">   -648.10595169 </i>
   </energy>
  </scstep>
  <scstep>
   <time name="diag">    1.83    1.83</time>
   <time name="diis">   24.40   24.42</time>
   <time name="orth">    0.44    0.44</time>
   <time name="total">   26.96   26.98</time>
   <energy>
    <i name="e_fr_energy">   -648.07565024 </i>
    <i name="e_wo_entrp">   -647.92811723 </i>
    <i name="e_0_energy">   -648.00188373 </i>
   </energy>
  </scstep>
  <scstep>
   <time name="diag">    1.80    1.82</time>
   <time name="diis">   24.07   24.09</time>
   <time name="orth">    0.44    0.44</time>
   <time name="total">   26.59   26.64</time>
   <energy>
    <i name="e_fr_energy">   -648.09246202 </i>
    <i name="e_wo_entrp">   -647.94690281 </i>
    <i name="e_0_energy">   -648.01968242 </i>
   </energy>
  </scstep>
  <scstep>
   <time name="diag">    1.79    1.84</time>
   <time name="diis">   24.02   24.83</time>
   <time name="orth">    0.43    0.44</time>
   <time name="total">   26.55   27.42</time>
   <energy>
    <i name="e_fr_energy">   -648.10441548 </i>
    <i name="e_wo_entrp">   -647.95775401 </i>
    <i name="e_0_energy">   -648.03108474 </i>
   </energy>
  </scstep>
  <scstep>
   <time name="diag">    1.82    1.82</time>
   <time name="diis">   23.40   23.52</time>
   <time name="orth">    0.44    0.44</time>
   <time name="total">   25.95   26.07</time>
   <energy>
    <i name="e_fr_energy">   -648.10545848 </i>
    <i name="e_wo_entrp">   -647.96077852 </i>
    <i name="e_0_energy">   -648.03311850 </i>
   </energy>
  </scstep>
  <scstep>
   <time name="diag">    1.83    1.83</time>
   <time name="diis">   24.44   24.48</time>
   <time name="orth">    0.44    0.44</time>
   <time name="total">   27.00   27.05</time>
   <energy>
    <i name="e_fr_energy">   -648.11756985 </i>
    <i name="e_wo_entrp">   -647.97212381 </i>
    <i name="e_0_energy">   -648.04484683 </i>
   </energy>
  </scstep>
  <scstep>
   <time name="diag">    1.84    1.84</time>
   <time name="diis">   24.26   24.91</time>
   <time name="orth">    0.43    0.44</time>
   <time name="total">   26.83   27.50</time>
   <energy>
    <i name="e_fr_energy">   -648.12213267 </i>
    <i name="e_wo_entrp">   -647.97612170 </i>
    <i name="e_0_energy">   -648.04912718 </i>
   </energy>
  </scstep>
  <scstep>
   <time name="diag">    1.80    1.83</time>
   <time name="diis">   24.37   24.39</time>
   <time name="orth">    0.44    0.44</time>
   <time name="total">   26.90   26.95</time>
   <energy>
    <i name="e_fr_energy">   -648.12381332 </i>
    <i name="e_wo_entrp">   -647.97824116 </i>
    <i name="e_0_energy">   -648.05102724 </i>
   </energy>
  </scstep>
  <scstep>
   <time name="diag">    1.82    1.82</time>
   <time name="diis">   23.37   23.47</time>
   <time name="orth">    0.44    0.44</time>
   <time name="total">   25.92   26.03</time>
   <energy>
    <i name="e_fr_energy">   -648.12469772 </i>
    <i name="e_wo_entrp">   -647.97914501 </i>
    <i name="e_0_energy">   -648.05192137 </i>
   </energy>
  </scstep>
  <scstep>
   <time name="diag">    1.84    1.84</time>
   <time name="diis">   24.29   24.30</time>
   <time name="orth">    0.44    0.44</time>
   <time name="total">   26.86   26.88</time>
   <energy>
    <i name="e_fr_energy">   -648.12551606 </i>
    <i name="e_wo_entrp">   -647.97993237 </i>
    <i name="e_0_energy">   -648.05272421 </i>
   </energy>
  </scstep>
  <scstep>
   <time name="diag">    1.83    1.83</time>
   <time name="diis">   22.95   22.99</time>
   <time name="orth">    0.44    0.44</time>
   <time name="total">   25.51   25.56</time>
   <energy>
    <i name="e_fr_energy">   -648.12593908 </i>
    <i name="e_wo_entrp">   -647.98052682 </i>
    <i name="e_0_energy">   -648.05323295 </i>
   </energy>
  </scstep>
  <scstep>
   <time name="diag">    1.88    1.88</time>
   <time name="diis">   22.43   22.45</time>
   <time name="orth">    0.44    0.44</time>
   <time name="total">   25.05   25.08</time>
   <energy>
    <i name="e_fr_energy">   -648.12627713 </i>
    <i name="e_wo_entrp">   -647.98084418 </i>
    <i name="e_0_energy">   -648.05356066 </i>
   </energy>
  </scstep>
  <scstep>
   <time name="diag">    1.81    1.81</time>
   <time name="diis">   21.31   21.33</time>
   <time name="orth">    0.44    0.44</time>
   <time name="total">   23.85   23.88</time>
   <energy>
    <i name="e_fr_energy">   -648.12646467 </i>
    <i name="e_wo_entrp">   -647.98102736 </i>
    <i name="e_0_energy">   -648.05374601 </i>
   </energy>
  </scstep>
  <scstep>
   <time name="diag">    1.82    1.82</time>
   <time name="diis">   20.42   20.48</time>
   <time name="orth">    0.44    0.44</time>
   <time name="total">   22.99   23.04</time>
   <energy>
    <i name="e_fr_energy">   -648.12659126 </i>
    <i name="e_wo_entrp">   -647.98114594 </i>
    <i name="e_0_energy">   -648.05386860 </i>
   </energy>
  </scstep>
  <scstep>
   <time name="diag">    1.84    1.86</time>
   <time name="diis">   19.28   19.46</time>
   <time name="orth">    0.44    0.44</time>
   <time name="total">   21.86   22.06</time>
   <energy>
    <i name="e_fr_energy">   -648.12665668 </i>
    <i name="e_wo_entrp">   -647.98122899 </i>
    <i name="e_0_energy">   -648.05394283 </i>
   </energy>
  </scstep>
  <scstep>
   <time name="diag">    1.85    1.85</time>
   <time name="diis">   19.07   19.15</time>
   <time name="orth">    0.44    0.44</time>
   <time name="total">   21.66   21.74</time>
   <energy>
    <i name="e_fr_energy">   -648.12670595 </i>
    <i name="e_wo_entrp">   -647.98128379 </i>
    <i name="e_0_energy">   -648.05399487 </i>
   </energy>
  </scstep>
  <scstep>
   <time name="diag">    1.80    1.84</time>
   <time name="diis">   18.44   19.07</time>
   <time name="orth">    0.43    0.44</time>
   <time name="total">   20.97   21.65</time>
   <energy>
    <i name="e_fr_energy">   -648.12673499 </i>
    <i name="e_wo_entrp">   -647.98131444 </i>
    <i name="e_0_energy">   -648.05402471 </i>
   </energy>
  </scstep>
  <scstep>
   <time name="diag">    1.80    1.82</time>
   <time name="diis">   18.45   18.46</time>
   <time name="orth">    0.44    0.44</time>
   <time name="total">   20.99   21.02</time>
   <energy>
    <i name="e_fr_energy">   -648.12675540 </i>
    <i name="e_wo_entrp">   -647.98133708 </i>
    <i name="e_0_energy">   -648.05404624 </i>
   </energy>
  </scstep>
  <scstep>
   <time name="diag">    1.83    1.83</time>
   <time name="diis">   17.75   17.79</time>
   <time name="orth">    0.46    0.46</time>
   <time name="total">   20.32   20.38</time>
   <energy>
    <i name="e_fr_energy">   -648.12676617 </i>
    <i name="e_wo_entrp">   -647.98134199 </i>
    <i name="e_0_energy">   -648.05405408 </i>
   </energy>
  </scstep>
  <scstep>
   <time name="diag">    1.79    1.82</time>
   <time name="diis">   16.55   17.11</time>
   <time name="orth">    0.44    0.44</time>
   <time name="total">   18.81   19.42</time>
   <energy>
    <i name="alphaZ">   4425.96833458 </i>
    <i name="ewald"> -43267.89511500 </i>
    <i name="hartreedc">  -7584.92025301 </i>
    <i name="XCdc">   1936.37839608 </i>
    <i name="pawpsdc">  32575.90177988 </i>
    <i name="pawaedc"> -32485.58166220 </i>
    <i name="eentropy">     -0.14542150 </i>
    <i name="bandstr">  -5102.22448741 </i>
    <i name="atom">  48854.39165400 </i>
    <i name="e_fr_energy">   -648.12677458 </i>
    <i name="e_wo_entrp">   -647.98135308 </i>
    <i name="e_0_energy">   -648.05406383 </i>
   </energy>
  </scstep>
  <structure>
   <crystal>
    <varray name="basis" >
     <v>       8.60274685       0.02434006      -0.01003671 </v>
     <v>       0.03021610       8.71239780      -0.00201154 </v>
     <v>       0.02083193      -0.01703814       8.60771905 </v>
    </varray>
    <i name="volume">    645.14850096 </i>
    <varray name="rec_basis" >
     <v>       0.11624275      -0.00040322      -0.00028212 </v>
     <v>      -0.00032449       0.11478014       0.00022798 </v>
     <v>       0.00013546       0.00002635       0.11617452 </v>
    </varray>
   </crystal>
   <varray name="positions" >
    <v>       0.99569598       0.99727752       0.99411750 </v>
    <v>       0.26739497       0.00022377       0.24511558 </v>
    <v>       0.24695107       0.49956901       0.24725013 </v>
    <v>       0.50134589       0.49821000       0.00147782 </v>
    <v>       0.50451559       0.23798980       0.74598642 </v>
    <v>       0.00077008       0.49930303       0.49884136 </v>
    <v>       0.49415124       0.76733134       0.75283323 </v>
    <v>       0.99339165       0.23709515       0.25973145 </v>
    <v>       0.75418713       0.74497481       0.01052715 </v>
    <v>       0.00345154       0.25318050       0.74217872 </v>
    <v>       0.75038679       0.25585911       0.50282613 </v>
    <v>       0.00023990       0.74753541       0.74964117 </v>
    <v>       0.25160133       0.49549716       0.74822433 </v>
    <v>       0.24850599       0.24874997       0.99412991 </v>
    <v>       0.50937702       0.25244229       0.25262610 </v>
    <v>       0.74028322       0.99130357       0.26922437 </v>
    <v>       0.75543109       0.25517197       0.99586316 </v>
    <v>       0.24689720       0.74848254       0.99884150 </v>
    <v>       0.25371133       0.24745143       0.50210538 </v>
    <v>       0.24830260       0.75192359       0.50072720 </v>
    <v>       0.25129778       0.24928005       0.24830251 </v>
    <v>       0.25809103       0.00037587       0.99385236 </v>
    <v>       0.00240576       0.24828030       0.00035483 </v>
    <v>       0.74953678       0.24609947       0.25304832 </v>
    <v>       0.74653814       0.99964467       0.00764352 </v>
    <v>       0.50762915       0.99937307       0.24951259 </v>
    <v>       0.99328135       0.48497071       0.24405983 </v>
    <v>       0.50324067       0.75909143       0.00546717 </v>
    <v>       0.98995976       0.00206349       0.74303033 </v>
    <v>       0.75359733       0.24526656       0.75257362 </v>
    <v>       0.73802376       0.00238040       0.50585745 </v>
    <v>       0.50234496       0.23449771       0.49508270 </v>
    <v>       0.50253728       0.00067931       0.73801721 </v>
    <v>       0.99589045       0.00348253       0.25149745 </v>
    <v>       0.50536022       0.24456084       0.00290647 </v>
    <v>       0.25174704       0.74923478       0.24893619 </v>
    <v>       0.24357484       0.50130762       0.99694341 </v>
    <v>       0.00238753       0.74260955       0.00282845 </v>
    <v>       0.75186896       0.75031395       0.25112375 </v>
    <v>       0.75880584       0.49973747       0.00206863 </v>
    <v>       0.49858023       0.50089673       0.25246031 </v>
    <v>       0.25005706       0.24947514       0.74860993 </v>
    <v>       0.25943704       0.99800168       0.50464642 </v>
    <v>       0.00228022       0.24668849       0.50154969 </v>
    <v>       0.24348793       0.75391190       0.75036729 </v>
    <v>       0.25423547       0.50092635       0.49861081 </v>
    <v>       0.99863458       0.75560498       0.50151947 </v>
    <v>       0.99472599       0.50069855       0.75334496 </v>
    <v>       0.74821696       0.76090686       0.75108635 </v>
    <v>       0.74841878       0.49567528       0.50217642 </v>
    <v>       0.49894930       0.76161326       0.49467352 </v>
    <v>       0.49995818       0.50171798       0.74601078 </v>
    <v>       0.51919837       0.01588395       0.98127426 </v>
    <v>       0.99963747       0.51147532       0.98260280 </v>
    <v>       0.50237351       0.74281174       0.25755668 </v>
    <v>       0.23965707       0.01342462       0.74610360 </v>
    <v>       0.47811092       0.98193286       0.49785916 </v>
    <v>       0.73999225       0.97545348       0.76661601 </v>
    <v>       0.00416192       0.76007547       0.25192393 </v>
    <v>       0.74735081       0.49920717       0.25150062 </v>
    <v>       0.00879990       0.00339009       0.50846023 </v>
    <v>       0.49044328       0.51391444       0.49836392 </v>
    <v>       0.74895984       0.50939567       0.74905406 </v>
    <v>       0.74962305       0.75409600       0.49825351 </v>
   </varray>
  </structure>
  <varray name="forces" >
   <v>       0.38480321       0.21342967      -0.20628094 </v>
   <v>      -0.43732145       0.05243819      -0.22486711 </v>
   <v>      -0.34588306      -0.61548260      -0.46937471 </v>
   <v>      -0.52709865       0.06039603      -0.31074881 </v>
   <v>      -0.32856593       0.27068725       0.37479458 </v>
   <v>       0.26744772       0.08053433       0.59801149 </v>
   <v>      -0.19479319      -1.22404396       0.35653668 </v>
   <v>       0.18669711       0.20138210      -0.58170946 </v>
   <v>      -0.55159395       0.39327415      -1.05616451 </v>
   <v>       0.00127403      -0.44057176       0.83118684 </v>
   <v>       0.30855335      -0.93390849      -0.28146535 </v>
   <v>      -0.04960726       0.19648328       0.62275940 </v>
   <v>      -0.63187359       0.05387398       0.84461186 </v>
   <v>       0.44728150      -0.19422644      -0.04758156 </v>
   <v>      -0.25022532      -0.03148800      -0.52210556 </v>
   <v>      -0.30552740       0.58203860      -1.27632112 </v>
   <v>      -0.72307462      -0.56830035       0.36146650 </v>
   <v>       0.29751477       0.04967325      -0.07687783 </v>
   <v>      -0.15141028      -0.32442863       0.01234378 </v>
   <v>       0.22096591       0.38839198      -0.03010506 </v>
   <v>       0.23637497      -0.26299790      -0.13394199 </v>
   <v>      -0.01881963       0.16034087      -0.25605428 </v>
   <v>       0.07138330       0.40514233       0.04889578 </v>
   <v>      -0.58823050      -0.28870105      -0.86005044 </v>
   <v>      -0.33251030       0.64734626      -0.59158480 </v>
   <v>       0.65299740      -0.03187190      -0.04927651 </v>
   <v>       0.42221573       1.21921284      -0.25496417 </v>
   <v>      -0.63699892       0.20026143       0.15562802 </v>
   <v>      -0.07574317       0.12535068       1.24414173 </v>
   <v>       0.00482721       0.23389400       0.44190630 </v>
   <v>       0.71490239      -0.15184888       0.30491254 </v>
   <v>      -0.68159446       0.75803469      -0.26095713 </v>
   <v>       0.23536116       0.49344215       0.56329968 </v>
   <v>       0.09783932      -1.40816031       0.07171828 </v>
   <v>      -0.17734684      -0.32675965       0.25947906 </v>
   <v>       0.58265531       0.19855075      -0.12807687 </v>
   <v>      -0.28919314      -0.08979762      -0.11732206 </v>
   <v>       0.38548127       0.11997399      -0.31102303 </v>
   <v>      -0.77349048       0.00798378       0.67711547 </v>
   <v>       0.21127676      -0.64021633      -0.19648756 </v>
   <v>       0.57952477      -0.31535974       0.09985390 </v>
   <v>       0.21666897      -0.60180581       0.05196593 </v>
   <v>      -0.94889731       0.31110163       0.52684067 </v>
   <v>       0.60425366       0.41285029      -0.12178252 </v>
   <v>       0.16825573       0.48676431       0.12746848 </v>
   <v>      -0.71268826      -0.13549883      -0.09562166 </v>
   <v>       0.46870603      -0.36580177      -0.11831888 </v>
   <v>       0.81705363      -0.11436388       0.23740914 </v>
   <v>       0.06849221      -1.14760347       0.42660745 </v>
   <v>      -0.66114501       1.18430673      -0.53080695 </v>
   <v>      -0.81150400      -0.74140784      -0.15545012 </v>
   <v>       0.14759030      -0.04115054       0.01039117 </v>
   <v>       0.13847947      -0.30375381       0.08723469 </v>
   <v>       0.41248098       0.07074746       0.43643200 </v>
   <v>      -0.23819820       0.03568995      -0.39428157 </v>
   <v>       0.08605524      -0.07133624       0.04370682 </v>
   <v>       0.75186185       0.36157728      -0.14719514 </v>
   <v>      -0.46452565       1.17210896       0.50426071 </v>
   <v>       0.06906146       0.23871448      -0.06642675 </v>
   <v>      -0.15797395       0.39074137       0.02679853 </v>
   <v>       0.65500073      -0.27399050      -1.18177557 </v>
   <v>       1.87740064       0.09822373       0.09786323 </v>
   <v>      -0.40789754       0.34966652       0.74377631 </v>
   <v>      -0.31700604      -0.57975299      -0.13441701 </v>
  </varray>
  <varray name="stress" >
   <v>     210.22088810       1.01305555       5.94261364 </v>
   <v>       1.01305540     158.61460674      -6.53352094 </v>
   <v>       5.94261267      -6.53352007     226.24259017 </v>
  </varray>
  <energy>
   <i name="e_fr_energy">   -648.12677458 </i>
   <i name="e_wo_entrp">   -648.05406383 </i>
   <i name="e_0_energy">     -0.14542150 </i>
  </energy>
  <time name="totalsc">  750.80  760.30</time>
 </calculation>
 <calculation>
  <scstep>
   <time name="dav">   28.37   29.24</time>
   <time name="total">   28.69   29.56</time>
   <energy>
    <i name="alphaZ">   4248.20052490 </i>
    <i name="ewald"> -42729.95684808 </i>
    <i name="hartreedc">  -7432.81127397 </i>
    <i name="XCdc">   1908.79546607 </i>
    <i name="pawpsdc">  32575.89828609 </i>
    <i name="pawaedc"> -32485.57645650 </i>
    <i name="eentropy">     -0.15434360 </i>
    <i name="bandstr">  -5592.86011203 </i>
    <i name="atom">  48854.39165400 </i>
    <i name="e_fr_energy">   -654.07310312 </i>
    <i name="e_wo_entrp">   -653.91875952 </i>
    <i name="e_0_energy">   -653.99593132 </i>
   </energy>
  </scstep>
  <scstep>
   <time name="diag">    1.81    1.85</time>
   <time name="diis">   21.06   21.71</time>
   <time name="orth">    0.44    0.44</time>
   <time name="total">   23.60   24.30</time>
   <energy>
    <i name="e_fr_energy">   -713.83109253 </i>
    <i name="e_wo_entrp">   -713.71735616 </i>
    <i name="e_0_energy">   -713.77422434 </i>
   </energy>
  </scstep>
  <scstep>
   <time name="diag">    1.84    1.84</time>
   <time name="diis">   18.93   18.98</time>
   <time name="orth">    0.44    0.44</time>
   <time name="total">   21.51   21.57</time>
   <energy>
    <i name="e_fr_energy">   -652.45411771 </i>
    <i name="e_wo_entrp">   -652.31845332 </i>
    <i name="e_0_energy">   -652.38628551 </i>
   </energy>
  </scstep>
  <scstep>
   <time name="diag">    1.80    1.84</time>
   <time name="diis">   21.07   21.78</time>
   <time name="orth">    0.43    0.44</time>
   <time name="total">   23.59   24.36</time>
   <energy>
    <i name="e_fr_energy">   -653.91046021 </i>
    <i name="e_wo_entrp">   -653.77086652 </i>
    <i name="e_0_energy">   -653.84066337 </i>
   </energy>
  </scstep>
  <scstep>
   <time name="diag">    1.79    1.83</time>
   <time name="diis">   20.97   21.03</time>
   <time name="orth">    0.44    0.44</time>
   <time name="total">   23.49   23.59</time>
   <energy>
    <i name="e_fr_energy">   -650.72300439 </i>
    <i name="e_wo_entrp">   -650.58996954 </i>
    <i name="e_0_energy">   -650.65648696 </i>
   </energy>
  </scstep>
  <scstep>
   <time name="diag">    1.84    1.84</time>
   <time name="diis">   21.94   22.00</time>
   <time name="orth">    0.44    0.44</time>
   <time name="total">   24.51   24.56</time>
   <energy>
    <i name="e_fr_energy">   -651.05883990 </i>
    <i name="e_wo_entrp">   -650.90884567 </i>
    <i name="e_0_energy">   -650.98384278 </i>
   </energy>
  </scstep>
  <scstep>
   <time name="diag">    1.83    1.83</time>
   <time name="diis">   21.36   21.40</time>
   <time name="orth">    0.44    0.44</time>
   <time name="total">   23.93   23.97</time>
   <energy>
    <i name="e_fr_energy">   -650.05961357 </i>
    <i name="e_wo_entrp">   -649.90958354 </i>
    <i name="e_0_energy">   -649.98459856 </i>
   </energy>
  </scstep>
  <scstep>
   <time name="diag">    1.82    1.82</time>
   <time name="diis">   21.38   21.43</time>
   <time name="orth">    0.44    0.44</time>
[...]
      </set>
     </set>
    </set>
   </array>
  </eigenvalues>
  <separator name="orbital magnetization" >
   <v name="MAGDIPOLOUT">      0.00000000      0.00000000      0.00000000</v>
  </separator>
  <dos>
   <i name="efermi">      8.80209324 </i>
   <total>
    <array>
     <dimension dim="1">gridpoints</dimension>
     <dimension dim="2">spin</dimension>
     <field>energy</field>
     <field>total</field>
     <field>integrated</field>
     <set>
      <set comment="spin 1">
       <r>   -51.9521     0.0000     0.0000 </r>
       <r>   -51.7306     0.0000     0.0000 </r>
       <r>   -51.5091     0.0000     0.0000 </r>
       <r>   -51.2875     0.0000     0.0000 </r>
       <r>   -51.0660     0.0000     0.0000 </r>
       <r>   -50.8445     0.0000     0.0000 </r>
       <r>   -50.6230     0.0000     0.0000 </r>
       <r>   -50.4014     0.0000     0.0000 </r>
       <r>   -50.1799     0.0000     0.0000 </r>
       <r>   -49.9584     0.0000     0.0000 </r>
       <r>   -49.7369     0.0000     0.0000 </r>
       <r>   -49.5153     0.0000     0.0000 </r>
       <r>   -49.2938     0.0000     0.0000 </r>
       <r>   -49.0723     0.2101     0.0465 </r>
       <r>   -48.8508    12.7701     2.8754 </r>
       <r>   -48.6292    25.4220     8.5071 </r>
       <r>   -48.4077    16.8298    12.2353 </r>
       <r>   -48.1862     7.7928    13.9616 </r>
       <r>   -47.9647     0.1734    14.0000 </r>
       <r>   -47.7431     0.0000    14.0000 </r>
       <r>   -47.5216     0.0000    14.0000 </r>
       <r>   -47.3001     0.3035    14.0672 </r>
       <r>   -47.0785    15.3273    17.4626 </r>
       <r>   -46.8570    20.6454    22.0361 </r>
       <r>   -46.6355    13.2790    24.9778 </r>
       <r>   -46.4140     4.6077    25.9985 </r>
       <r>   -46.1924     0.0068    26.0000 </r>
       <r>   -45.9709     0.0000    26.0000 </r>
       <r>   -45.7494     0.0000    26.0000 </r>
       <r>   -45.5279     0.0000    26.0000 </r>
       <r>   -45.3063     0.0000    26.0000 </r>
       <r>   -45.0848     0.0000    26.0000 </r>
       <r>   -44.8633     0.0000    26.0000 </r>
       <r>   -44.6418     0.0000    26.0000 </r>
       <r>   -44.4202     0.0000    26.0000 </r>
       <r>   -44.1987     0.0000    26.0000 </r>
       <r>   -43.9772     0.0000    26.0000 </r>
       <r>   -43.7557     0.0000    26.0000 </r>
       <r>   -43.5341     0.0000    26.0000 </r>
       <r>   -43.3126     0.0000    26.0000 </r>
       <r>   -43.0911     0.0000    26.0000 </r>
       <r>   -42.8696     0.0000    26.0000 </r>
       <r>   -42.6480     0.0000    26.0000 </r>
       <r>   -42.4265     0.0000    26.0000 </r>
       <r>   -42.2050     0.0000    26.0000 </r>
       <r>   -41.9834     0.0000    26.0000 </r>
       <r>   -41.7619     0.0000    26.0000 </r>
       <r>   -41.5404     0.0000    26.0000 </r>
       <r>   -41.3189     0.0000    26.0000 </r>
       <r>   -41.0973     0.0000    26.0000 </r>
       <r>   -40.8758     0.0000    26.0000 </r>
       <r>   -40.6543     0.0000    26.0000 </r>
       <r>   -40.4328     0.0000    26.0000 </r>
       <r>   -40.2112     0.0000    26.0000 </r>
       <r>   -39.9897     0.0000    26.0000 </r>
       <r>   -39.7682     0.0000    26.0000 </r>
       <r>   -39.5467     0.0000    26.0000 </r>
       <r>   -39.3251     0.0000    26.0000 </r>
       <r>   -39.1036     0.0000    26.0000 </r>
       <r>   -38.8821     0.0000    26.0000 </r>
       <r>   -38.6606     0.0000    26.0000 </r>
       <r>   -38.4390     0.0000    26.0000 </r>
       <r>   -38.2175     0.0000    26.0000 </r>
       <r>   -37.9960     0.0000    26.0000 </r>
       <r>   -37.7744     0.0000    26.0000 </r>
       <r>   -37.5529     0.0000    26.0000 </r>
       <r>   -37.3314     0.0000    26.0000 </r>
       <r>   -37.1099     0.0000    26.0000 </r>
       <r>   -36.8883     0.0000    26.0000 </r>
       <r>   -36.6668     0.0000    26.0000 </r>
       <r>   -36.4453     0.0000    26.0000 </r>
       <r>   -36.2238     0.0000    26.0000 </r>
       <r>   -36.0022     0.0000    26.0000 </r>
       <r>   -35.7807     0.0000    26.0000 </r>
       <r>   -35.5592     0.0000    26.0000 </r>
       <r>   -35.3377     0.0002    26.0001 </r>
       <r>   -35.1161     1.6457    26.3646 </r>
       <r>   -34.8946    18.6873    30.5043 </r>
       <r>   -34.6731   107.9835    54.4255 </r>
       <r>   -34.4516    33.9799    61.9529 </r>
       <r>   -34.2300     0.2125    62.0000 </r>
       <r>   -34.0085     0.0000    62.0000 </r>
       <r>   -33.7870     0.0000    62.0000 </r>
       <r>   -33.5655     0.0000    62.0000 </r>
       <r>   -33.3439     0.0000    62.0000 </r>
       <r>   -33.1224     0.0000    62.0000 </r>
       <r>   -32.9009     0.0000    62.0000 </r>
       <r>   -32.6793     0.0000    62.0000 </r>
       <r>   -32.4578     0.0000    62.0000 </r>
       <r>   -32.2363     0.0000    62.0000 </r>
       <r>   -32.0148     0.0000    62.0000 </r>
       <r>   -31.7932     0.0000    62.0000 </r>
       <r>   -31.5717     0.0000    62.0000 </r>
       <r>   -31.3502     0.0000    62.0000 </r>
       <r>   -31.1287     0.0000    62.0000 </r>
       <r>   -30.9071     0.0000    62.0000 </r>
       <r>   -30.6856     0.0000    62.0000 </r>
       <r>   -30.4641     0.0000    62.0000 </r>
       <r>   -30.2426     0.0000    62.0000 </r>
       <r>   -30.0210     0.0000    62.0000 </r>
       <r>   -29.7995     0.0000    62.0000 </r>
       <r>   -29.5780     0.0000    62.0000 </r>
       <r>   -29.3565     0.0000    62.0000 </r>
       <r>   -29.1349     0.0000    62.0000 </r>
       <r>   -28.9134     0.0000    62.0000 </r>
       <r>   -28.6919     0.0000    62.0000 </r>
       <r>   -28.4704     0.0000    62.0000 </r>
       <r>   -28.2488     0.0000    62.0000 </r>
       <r>   -28.0273     0.0000    62.0000 </r>
       <r>   -27.8058     0.0000    62.0000 </r>
       <r>   -27.5842     0.0000    62.0000 </r>
       <r>   -27.3627     0.0000    62.0000 </r>
       <r>   -27.1412     0.0000    62.0000 </r>
       <r>   -26.9197     0.0000    62.0000 </r>
       <r>   -26.6981     0.7964    62.1764 </r>
       <r>   -26.4766    31.7936    69.2195 </r>
       <r>   -26.2551    68.7832    84.4568 </r>
       <r>   -26.0336    56.8237    97.0448 </r>
       <r>   -25.8120     4.3114    97.9999 </r>
       <r>   -25.5905     0.0086    98.0018 </r>
       <r>   -25.3690     9.6149   100.1317 </r>
       <r>   -25.1475    53.9730   112.0881 </r>
       <r>   -24.9259    74.3589   128.5606 </r>
       <r>   -24.7044    38.8430   137.1653 </r>
       <r>   -24.4829    12.7591   139.9918 </r>
       <r>   -24.2614     0.0371   140.0000 </r>
       <r>   -24.0398     0.0000   140.0000 </r>
       <r>   -23.8183     0.0000   140.0000 </r>
       <r>   -23.5968     0.8670   140.1921 </r>
       <r>   -23.3753    16.0500   143.7476 </r>
       <r>   -23.1537    59.4332   156.9136 </r>
       <r>   -22.9322    48.4911   167.6556 </r>
       <r>   -22.7107    32.5208   174.8598 </r>
       <r>   -22.4891     5.1459   175.9998 </r>
       <r>   -22.2676     1.9021   176.4212 </r>
       <r>   -22.0461    20.7312   181.0137 </r>
       <r>   -21.8246    42.6536   190.4626 </r>
       <r>   -21.6030    64.9342   204.8472 </r>
       <r>   -21.3815    52.3764   216.4499 </r>
       <r>   -21.1600     6.9700   217.9940 </r>
       <r>   -20.9385     0.0272   218.0000 </r>
       <r>   -20.7169     0.0000   218.0000 </r>
       <r>   -20.4954     0.0000   218.0000 </r>
       <r>   -20.2739     0.0000   218.0000 </r>
       <r>   -20.0524     0.0000   218.0000 </r>
       <r>   -19.8308     0.0000   218.0000 </r>
       <r>   -19.6093     0.0000   218.0000 </r>
       <r>   -19.3878     0.0000   218.0000 </r>
       <r>   -19.1663     0.0000   218.0000 </r>
       <r>   -18.9447     0.0000   218.0000 </r>
       <r>   -18.7232     0.0000   218.0000 </r>
       <r>   -18.5017     0.0000   218.0000 </r>
       <r>   -18.2802     0.0000   218.0000 </r>
       <r>   -18.0586     0.0000   218.0000 </r>
       <r>   -17.8371     0.0000   218.0000 </r>
       <r>   -17.6156     0.0000   218.0000 </r>
       <r>   -17.3940     0.0000   218.0000 </r>
       <r>   -17.1725     0.0000   218.0000 </r>
       <r>   -16.9510     0.0000   218.0000 </r>
       <r>   -16.7295     0.0000   218.0000 </r>
       <r>   -16.5079     0.0000   218.0000 </r>
       <r>   -16.2864     0.0000   218.0000 </r>
       <r>   -16.0649     0.0000   218.0000 </r>
       <r>   -15.8434     0.0000   218.0000 </r>
       <r>   -15.6218     0.0000   218.0000 </r>
       <r>   -15.4003     0.0000   218.0000 </r>
       <r>   -15.1788     0.0000   218.0000 </r>
       <r>   -14.9573     0.0000   218.0000 </r>
       <r>   -14.7357     0.0000   218.0000 </r>
       <r>   -14.5142     0.0000   218.0000 </r>
       <r>   -14.2927     0.0000   218.0000 </r>
       <r>   -14.0712     0.0000   218.0000 </r>
       <r>   -13.8496     0.0000   218.0000 </r>
       <r>   -13.6281     0.0000   218.0000 </r>
       <r>   -13.4066     0.0000   218.0000 </r>
       <r>   -13.1850     0.0000   218.0000 </r>
       <r>   -12.9635     0.0000   218.0000 </r>
       <r>   -12.7420     0.0000   218.0000 </r>
       <r>   -12.5205     0.0000   218.0000 </r>
       <r>   -12.2989     0.0000   218.0000 </r>
       <r>   -12.0774     0.0000   218.0000 </r>
       <r>   -11.8559     0.0000   218.0000 </r>
       <r>   -11.6344     0.0000   218.0000 </r>
       <r>   -11.4128     0.0000   218.0000 </r>
       <r>   -11.1913     0.0000   218.0000 </r>
       <r>   -10.9698     0.0000   218.0000 </r>
       <r>   -10.7483     0.0000   218.0000 </r>
       <r>   -10.5267     0.0000   218.0000 </r>
       <r>   -10.3052     0.0000   218.0000 </r>
       <r>   -10.0837     0.0000   218.0000 </r>
       <r>    -9.8622     0.0000   218.0000 </r>
       <r>    -9.6406     0.0000   218.0000 </r>
       <r>    -9.4191     0.0000   218.0000 </r>
       <r>    -9.1976     0.0000   218.0000 </r>
       <r>    -8.9761     0.0000   218.0000 </r>
       <r>    -8.7545     0.0000   218.0000 </r>
       <r>    -8.5330     0.0000   218.0000 </r>
       <r>    -8.3115     0.0000   218.0000 </r>
       <r>    -8.0899     0.0000   218.0000 </r>
       <r>    -7.8684     0.0000   218.0000 </r>
       <r>    -7.6469     0.0051   218.0011 </r>
       <r>    -7.4254     1.7391   218.3864 </r>
       <r>    -7.2038     7.0940   219.9579 </r>
       <r>    -6.9823     8.0412   221.7392 </r>
       <r>    -6.7608    15.0553   225.0744 </r>
       <r>    -6.5393     9.6765   227.2180 </r>
       <r>    -6.3177    13.0818   230.1159 </r>
       <r>    -6.0962    25.3901   235.7405 </r>
       <r>    -5.8747    20.5133   240.2847 </r>
       <r>    -5.6532    10.6091   242.6349 </r>
       <r>    -5.4316     6.1276   243.9923 </r>
       <r>    -5.2101     0.0346   244.0000 </r>
       <r>    -4.9886     0.0000   244.0000 </r>
       <r>    -4.7671     0.0000   244.0000 </r>
       <r>    -4.5455     0.0000   244.0000 </r>
       <r>    -4.3240     0.0000   244.0000 </r>
       <r>    -4.1025     0.2134   244.0473 </r>
       <r>    -3.8810     3.8504   244.9002 </r>
       <r>    -3.6594     4.7731   245.9576 </r>
       <r>    -3.4379     3.5305   246.7397 </r>
       <r>    -3.2164     9.0813   248.7515 </r>
       <r>    -2.9948    10.8129   251.1468 </r>
       <r>    -2.7733    15.6472   254.6131 </r>
       <r>    -2.5518    21.2437   259.3191 </r>
       <r>    -2.3303    23.7788   264.5867 </r>
       <r>    -2.1087    24.5488   270.0249 </r>
       <r>    -1.8872    23.1385   275.1507 </r>
       <r>    -1.6657    18.0684   279.1533 </r>
       <r>    -1.4442     9.2366   281.1995 </r>
       <r>    -1.2226     3.3214   281.9353 </r>
       <r>    -1.0011     0.2918   281.9999 </r>
       <r>    -0.7796     0.0004   282.0000 </r>
       <r>    -0.5581     0.0000   282.0000 </r>
       <r>    -0.3365     0.0000   282.0000 </r>
       <r>    -0.1150     0.0000   282.0000 </r>
       <r>     0.1065     0.0000   282.0000 </r>
       <r>     0.3280     0.0000   282.0000 </r>
       <r>     0.5496     0.0000   282.0000 </r>
       <r>     0.7711     0.1339   282.0297 </r>
       <r>     0.9926     0.6261   282.1684 </r>
       <r>     1.2141     3.6604   282.9792 </r>
       <r>     1.4357     8.4570   284.8527 </r>
       <r>     1.6572     9.1831   286.8870 </r>
       <r>     1.8787    15.6116   290.3453 </r>
       <r>     2.1003    19.7207   294.7140 </r>
       <r>     2.3218    26.1335   300.5032 </r>
       <r>     2.5433    31.3401   307.4459 </r>
       <r>     2.7648    26.5772   313.3334 </r>
       <r>     2.9864    29.3284   319.8304 </r>
       <r>     3.2079    35.2680   327.6432 </r>
       <r>     3.4294    36.6337   335.7586 </r>
       <r>     3.6509    38.0337   344.1840 </r>
       <r>     3.8725    46.3250   354.4462 </r>
       <r>     4.0940    55.0964   366.6515 </r>
       <r>     4.3155    61.8279   380.3480 </r>
       <r>     4.5370    65.5389   394.8666 </r>
       <r>     4.7586    62.7565   408.7688 </r>
       <r>     4.9801    59.5189   421.9538 </r>
       <r>     5.2016    49.6420   432.9508 </r>
       <r>     5.4231    39.6295   441.7298 </r>
       <r>     5.6447    36.2291   449.7554 </r>
       <r>     5.8662    29.6410   456.3217 </r>
       <r>     6.0877    28.6146   462.6606 </r>
       <r>     6.3092    19.5454   466.9904 </r>
       <r>     6.5308    16.1502   470.5681 </r>
       <r>     6.7523    11.7774   473.1771 </r>
       <r>     6.9738     4.7075   474.2199 </r>
       <r>     7.1954    10.9390   476.6432 </r>
       <r>     7.4169    17.0451   480.4191 </r>
       <r>     7.6384    17.9917   484.4048 </r>
       <r>     7.8599    21.9685   489.2713 </r>
       <r>     8.0815    20.5861   493.8317 </r>
       <r>     8.3030    18.5199   497.9343 </r>
       <r>     8.5245    25.2896   503.5366 </r>
       <r>     8.7460    26.5341   509.4146 </r>
       <r>     8.9676    27.7510   515.5622 </r>
       <r>     9.1891    33.4137   522.9642 </r>
       <r>     9.4106    37.4421   531.2586 </r>
       <r>     9.6321    40.5777   540.2476 </r>
       <r>     9.8537    45.6289   550.3556 </r>
       <r>    10.0752    47.0373   560.7756 </r>
       <r>    10.2967    46.3138   571.0353 </r>
       <r>    10.5182    49.1068   581.9138 </r>
       <r>    10.7398    47.0654   592.3400 </r>
       <r>    10.9613    50.2732   603.4768 </r>
       <r>    11.1828    45.9470   613.6553 </r>
       <r>    11.4044    37.6520   621.9962 </r>
       <r>    11.6259     8.9888   623.9874 </r>
       <r>    11.8474     0.0568   624.0000 </r>
       <r>    12.0689     0.0000   624.0000 </r>
       <r>    12.2905     0.0000   624.0000 </r>
       <r>    12.5120     0.0000   624.0000 </r>
       <r>    12.7335     0.0000   624.0000 </r>
       <r>    12.9550     0.0000   624.0000 </r>
       <r>    13.1766     0.0000   624.0000 </r>
       <r>    13.3981     0.0000   624.0000 </r>
       <r>    13.6196     0.0000   624.0000 </r>
       <r>    13.8411     0.0000   624.0000 </r>
       <r>    14.0627     0.0000   624.0000 </r>
       <r>    14.2842     0.0000   624.0000 </r>
       <r>    14.5057     0.0000   624.0000 </r>
      </set>
     </set>
    </array>
   </total>
  </dos>
 </calculation>
 <structure name="finalpos" >
  <crystal>
   <varray name="basis" >
    <v>       8.79883491       0.02324679      -0.00151866 </v>
    <v>       0.02945619       8.81543603      -0.01610295 </v>
    <v>       0.03015628      -0.03120622       8.82454881 </v>
   </varray>
   <i name="volume">    684.47105504 </i>
   <varray name="rec_basis" >
    <v>       0.11365235      -0.00038047      -0.00038973 </v>
    <v>      -0.00029964       0.11343912       0.00040218 </v>
    <v>       0.00001901       0.00020694       0.11332091 </v>
   </varray>
  </crystal>
  <varray name="positions" >
   <v>       0.00378245       0.99910600       0.99620563 </v>
   <v>       0.27108334       0.00052812       0.24852345 </v>
   <v>       0.24517782       0.49458594       0.24711961 </v>
   <v>       0.49668389       0.49886356       0.00074653 </v>
   <v>       0.50503045       0.24224728       0.74410192 </v>
   <v>       0.00039070       0.50073537       0.50478954 </v>
   <v>       0.49357237       0.75879040       0.75421053 </v>
   <v>       0.99278411       0.23848618       0.25480751 </v>
   <v>       0.75148648       0.74818097       0.00468647 </v>
   <v>       0.00247326       0.24775219       0.74639068 </v>
   <v>       0.75527410       0.24604545       0.49210777 </v>
   <v>       0.00082468       0.75124490       0.75328801 </v>
   <v>       0.24652418       0.49389854       0.75272065 </v>
   <v>       0.25646235       0.24200656       0.99172143 </v>
   <v>       0.50634907       0.25808639       0.25084268 </v>
   <v>       0.73423451       0.99714547       0.24635896 </v>
   <v>       0.74433589       0.24770783       0.00238747 </v>
   <v>       0.24864205       0.74880972      -0.00029787 </v>
   <v>       0.25094773       0.24687223       0.50556838 </v>
   <v>       0.25193447       0.75374941       0.50222834 </v>
   <v>       0.25259835       0.24635603       0.24685409 </v>
   <v>       0.25572820       0.00201792       0.99766719 </v>
   <v>       0.00254904       0.24996591       0.00036656 </v>
   <v>       0.74506357       0.24601351       0.24339080 </v>
   <v>       0.74724802       0.00311908       0.00373013 </v>
   <v>       0.50947992       0.00276085       0.24394599 </v>
   <v>       0.99576603       0.49944404       0.24633462 </v>
   <v>       0.49739310       0.75750429       0.00513369 </v>
   <v>       0.98910144       0.00254567       0.74701798 </v>
   <v>       0.75272649       0.24743916       0.75141396 </v>
   <v>       0.74730869       0.00318242       0.49470503 </v>
   <v>       0.49824887       0.24601178       0.49419656 </v>
   <v>       0.51901547       0.00049001       0.74933716 </v>
   <v>       0.99906850      -0.00141457       0.25082733 </v>
   <v>       0.50169631       0.24182994       0.00156687 </v>
   <v>       0.25494288       0.74887961       0.24883317 </v>
   <v>       0.24114951       0.49864531       0.99752367 </v>
   <v>       0.00364958       0.74623531       0.00192303 </v>
   <v>       0.74433152       0.75211484       0.25101150 </v>
   <v>       0.75907451       0.49638807       0.00115221 </v>
   <v>       0.50107059       0.49746745       0.25223943 </v>
   <v>       0.25090700       0.24309456       0.74975942 </v>
   <v>       0.25647709       0.00024854       0.50759263 </v>
   <v>       0.00557703       0.24910242       0.50067550 </v>
   <v>       0.24406539       0.75870700       0.75195315 </v>
   <v>       0.25276522       0.49937452       0.49978925 </v>
   <v>      -0.00064226       0.75436633       0.49972348 </v>
   <v>       0.99798249       0.50017475       0.75734632 </v>
   <v>       0.74864025       0.75572343       0.75194314 </v>
   <v>       0.74657766       0.50164114       0.49891579 </v>
   <v>       0.49465495       0.76007353       0.49339979 </v>
   <v>       0.50151174       0.50033902       0.74630115 </v>
   <v>       0.51926250       0.01354637       0.97921805 </v>
   <v>       0.00437777       0.51822732       0.98416195 </v>
   <v>       0.49403166       0.73158082       0.25597717 </v>
   <v>       0.23284768       0.01113791       0.73533338 </v>
   <v>       0.48273089       0.98619643       0.52562325 </v>
   <v>       0.73639287       0.97404142       0.78612804 </v>
   <v>       0.00739945       0.75868391       0.25037013 </v>
   <v>       0.74883620       0.50154580       0.24913514 </v>
   <v>       0.00927671       0.00302914       0.50212444 </v>
   <v>       0.49600533       0.51115280       0.49828753 </v>
   <v>       0.75027671       0.50764568       0.75391237 </v>
   <v>       0.74484154       0.75852776       0.49465041 </v>
  </varray>
 </structure>
</modeling>
