HECN                                    
           1
     8.932500    0.000000    0.000000
     0.005753    9.055598    0.000000
     0.032102   -0.015743    8.937128
   Hf   Nb   Ti   N    C    Cr   Ta
   7   6   7  13  19   6   6
Direct configuration=     1
   0.99688001  0.99204997  0.99924002
   0.25398003  0.99714995  0.24912000
   0.24803003  0.50165000  0.24955001
   0.50501006  0.49745998  0.99834003
   0.50479003  0.24631001  0.74710002
   0.99427992  0.50449999  0.49779000
   0.49950005  0.75481999  0.74817004
   0.99437004  0.23617001  0.26379999
   0.75718000  0.74102998  0.01100000
   0.00201000  0.25541000  0.73894001
   0.75307001  0.26163001  0.50533002
   0.99514004  0.74492004  0.74511997
   0.25679999  0.49462002  0.74545002
   0.24788999  0.24839000  0.99657997
   0.50833000  0.25676999  0.25376001
   0.74879004  0.98787999  0.26967001
   0.75719000  0.25603001  0.99591997
   0.24762001  0.74973999  0.99974006
   0.25272001  0.24823001  0.50015003
   0.24457999  0.75048999  0.49983999
   0.24982001  0.24942998  0.24825000
   0.26146999  0.99984002  0.99295996
   0.00281000  0.25024000  0.00130000
   0.75313998  0.24617000  0.25492002
   0.74767001  0.99748000  0.01202000
   0.50714994  0.99977000  0.24673000
   0.99051999  0.48088002  0.24100998
   0.50519005  0.76130999  0.00855000
   0.98896989  0.00202000  0.73708999
   0.75744996  0.24437997  0.74896999
   0.73632001  0.00417000  0.51063000
   0.50563996  0.23264999  0.49544997
   0.50008998  0.00061000  0.73471998
   0.99720000  0.99771992  0.25899999
   0.50427997  0.24673000  0.00262000
   0.25133999  0.74958002  0.24910999
   0.24328000  0.50072997  0.99510994
   0.99837005  0.74313996  0.00460000
   0.75633000  0.73891003  0.25767000
   0.75839004  0.50315998  0.00288000
   0.50700002  0.50333002  0.25878999
   0.24900999  0.25315000  0.74854000
   0.24446000  0.99823996  0.50287998
   0.99804009  0.24229999  0.50128003
   0.24177002  0.75340997  0.75018002
   0.25841001  0.50062002  0.50129001
   0.99000004  0.76215003  0.49746000
   0.99203996  0.50055999  0.75138002
   0.75036005  0.74888000  0.74756004
   0.74036002  0.50197000  0.50067003
   0.50575006  0.74958002  0.49720000
   0.50501003  0.50217998  0.73912003
   0.51588997  0.01358000  0.98075008
   0.99841994  0.50976998  0.98613004
   0.50379003  0.73926997  0.25905001
   0.23780002  0.01082000  0.74607998
   0.47957999  0.98308000  0.49717999
   0.74279003  0.97869994  0.76450995
   0.99864998  0.77573999  0.26102000
   0.73551001  0.51468004  0.26666001
   0.02362000  0.99783001  0.49557002
   0.50539000  0.52833005  0.49917999
   0.73876003  0.52828003  0.73814999
   0.75400003  0.72937999  0.49116997
HECN                                    
           1
     8.602747    0.024340   -0.010037
     0.030216    8.712398   -0.002012
     0.020832   -0.017038    8.607719
   Hf   Nb   Ti   N    C    Cr   Ta
   7   6   7  13  19   6   6
Direct configuration=     2
   0.99569598  0.99727752  0.99411750
   0.26739497  0.00022377  0.24511558
   0.24695107  0.49956901  0.24725013
   0.50134589  0.49821000  0.00147782
   0.50451559  0.23798980  0.74598642
   0.00077008  0.49930303  0.49884136
   0.49415124  0.76733134  0.75283323
   0.99339165  0.23709515  0.25973145
   0.75418713  0.74497481  0.01052715
   0.00345154  0.25318050  0.74217872
   0.75038679  0.25585911  0.50282613
   0.00023990  0.74753541  0.74964117
   0.25160133  0.49549716  0.74822433
   0.24850599  0.24874997  0.99412991
   0.50937702  0.25244229  0.25262610
   0.74028322  0.99130357  0.26922437
   0.75543109  0.25517197  0.99586316
   0.24689720  0.74848254  0.99884150
   0.25371133  0.24745143  0.50210538
   0.24830260  0.75192359  0.50072720
   0.25129778  0.24928005  0.24830251
   0.25809103  0.00037587  0.99385236
   0.00240576  0.24828030  0.00035483
   0.74953678  0.24609947  0.25304832
   0.74653814  0.99964467  0.00764352
   0.50762915  0.99937307  0.24951259
   0.99328135  0.48497071  0.24405983
   0.50324067  0.75909143  0.00546717
   0.98995976  0.00206349  0.74303033
   0.75359733  0.24526656  0.75257362
   0.73802376  0.00238040  0.50585745
   0.50234496  0.23449771  0.49508270
   0.50253728  0.00067931  0.73801721
   0.99589045  0.00348253  0.25149745
   0.50536022  0.24456084  0.00290647
   0.25174704  0.74923478  0.24893619
   0.24357484  0.50130762  0.99694341
   0.00238753  0.74260955  0.00282845
   0.75186896  0.75031395  0.25112375
   0.75880584  0.49973747  0.00206863
   0.49858023  0.50089673  0.25246031
   0.25005706  0.24947514  0.74860993
   0.25943704  0.99800168  0.50464642
   0.00228022  0.24668849  0.50154969
   0.24348793  0.75391190  0.75036729
   0.25423547  0.50092635  0.49861081
   0.99863458  0.75560498  0.50151947
   0.99472599  0.50069855  0.75334496
   0.74821696  0.76090686  0.75108635
   0.74841878  0.49567528  0.50217642
   0.49894930  0.76161326  0.49467352
   0.49995818  0.50171798  0.74601078
   0.51919837  0.01588395  0.98127426
   0.99963747  0.51147532  0.98260280
   0.50237351  0.74281174  0.25755668
   0.23965707  0.01342462  0.74610360
   0.47811092  0.98193286  0.49785916
   0.73999225  0.97545348  0.76661601
   0.00416192  0.76007547  0.25192393
   0.74735081  0.49920717  0.25150062
   0.00879990  0.00339009  0.50846023
   0.49044328  0.51391444  0.49836392
   0.74895984  0.50939567  0.74905406
   0.74962305  0.75409600  0.49825351
HECN                                    
           1
     8.720073    0.015680   -0.006466
     0.021512    8.834508   -0.001296
     0.024842   -0.016577    8.724923
   Hf   Nb   Ti   N    C    Cr   Ta
   7   6   7  13  19   6   6
Direct configuration=     3
   0.99614117  0.99534345  0.99600991
   0.26244394 -0.00089883  0.24658884
   0.24734846  0.50033767  0.24810038
   0.50269902  0.49792860  0.00032018
   0.50460863  0.24106657  0.74639862
  -0.00163362  0.50123157  0.49845062
   0.49613856  0.76269853  0.75111181
   0.99375585  0.23675233  0.26123478
   0.75529720  0.74351289  0.01070278
   0.00291521  0.25400624  0.74098186
   0.75137304  0.25799072  0.50375276
  -0.00164338  0.74657310  0.74796855
   0.25352165  0.49516720  0.74720162
   0.24827986  0.24861767  0.99503470
   0.50898611  0.25404392  0.25304490
   0.74342981  0.99002873  0.26939237
   0.75608002  0.25548748  0.99588498
   0.24716329  0.74894689  0.99917386
   0.25334342  0.24774023  0.50138268
   0.24692846  0.75139719  0.50039773
   0.25075165  0.24933702  0.24828249
   0.25933953  0.00017415  0.99352410
   0.00255343  0.24900469  0.00070433
   0.75086869  0.24612199  0.25374131
   0.74696049  0.99884331  0.00926056
   0.50745049  0.99952014  0.24848448
   0.99226422  0.48346051  0.24293163
   0.50395983  0.75991013  0.00660704
   0.98959154  0.00204796  0.74083544
   0.75502003  0.24493443  0.75124396
   0.73739449  0.00304436  0.50761993
   0.50356439  0.23381102  0.49521963
   0.50163180  0.00065595  0.73679810
   0.99638362  0.00135065  0.25426909
   0.50495870  0.24536413  0.00280036
   0.25159637  0.74936289  0.24900025
   0.24346573  0.50109415  0.99626592
   0.00090351  0.74280999  0.00348120
   0.75353198  0.74609248  0.25354299
   0.75864895  0.50100367  0.00236848
   0.50169100  0.50178841  0.25480243
   0.24966630  0.25083524  0.74858396
   0.25390290  0.99810511  0.50398744
   0.00071829  0.24506990  0.50144787
   0.24285372  0.75372804  0.75029732
   0.25577920  0.50080897  0.49960232
   0.99543593  0.75803405  0.50001668
   0.99373296  0.50064992  0.75261791
   0.74901994  0.75645662  0.74978357
   0.74543422  0.49801138  0.50161700
   0.50147564  0.75715633  0.49560875
   0.50182107  0.50188309  0.74346744
   0.51797833  0.01503528  0.98107900
   0.99919100  0.51084618  0.98390515
   0.50290124  0.74150058  0.25810865
   0.23897376  0.01246330  0.74609386
   0.47865215  0.98235553  0.49760899
   0.74102151  0.97665103  0.76583948
   0.00211290  0.76587490  0.25528313
   0.74296648  0.50494272  0.25709697
   0.01427536  0.00131757  0.50370428
   0.49595026  0.51923025  0.49867306
   0.74516686  0.51638912  0.74502314
   0.75126325  0.74495049  0.49563651
HECN                                    
           1
     8.832653    0.029709   -0.004361
     0.035953    8.857269   -0.012514
     0.027368   -0.027643    8.868445
   Hf   Nb   Ti   N    C    Cr   Ta
   7   6   7  13  19   6   6
Direct configuration=     4
   0.99661552  0.99941986  0.99199360
   0.26948059  0.00125119  0.24369023
   0.24587033  0.49719857  0.24512723
   0.49861374  0.49852929  0.00154982
   0.50353850  0.23638207  0.74697761
   0.00366075  0.49833886  0.50093742
   0.49263378  0.76694104  0.75512430
   0.99383473  0.23762989  0.25680114
   0.75166189  0.74756529  0.00723294
   0.00386137  0.25113551  0.74563403
   0.75053581  0.25178048  0.50149026
   0.00127650  0.74883145  0.75297141
   0.24815768  0.49584055  0.75164229
   0.25010501  0.24823132  0.99331671
   0.50875155  0.25123237  0.25059390
   0.73727944  0.99316048  0.26528013
   0.75264295  0.25332567  0.99675710
   0.24754681  0.74824784  0.99835626
   0.25368427  0.24617628  0.50265302
   0.25004149  0.75360249  0.50091962
   0.25240077  0.24852848  0.24792799
   0.25727642  0.00099256  0.99342721
   0.00249075  0.24890313  0.00024421
   0.74673588  0.24569542  0.24991159
   0.74499778  0.00219680  0.00467501
   0.50945671  0.99924706  0.25002251
   0.99486026  0.48980824  0.24402552
   0.50075443  0.75921122  0.00495458
   0.98995012  0.00258360  0.74815574
   0.75251126  0.24642411  0.75488523
   0.74102214  0.00076463  0.50523550
   0.49958992  0.23719079  0.49426772
   0.50389434  0.00193359  0.74059351
   0.99604788 -0.00029935  0.25035107
   0.50511458  0.24289693  0.00389492
   0.25351447  0.74960771  0.24846228
   0.24277845  0.50122471  0.99713129
   0.00471847  0.74264480  0.00157703
   0.74809615  0.75233867  0.25175897
   0.75958340  0.49666682  0.00153141
   0.49868091  0.49933030  0.25099482
   0.25092651  0.24665173  0.74879226
   0.25919250  0.99875359  0.50669563
   0.00516572  0.24912701  0.50136306
   0.24450369  0.75551207  0.75086895
   0.25124037  0.50062503  0.49760611
   0.00229110  0.75279615  0.50216770
   0.99780143  0.50024742  0.75478799
   0.74783854  0.75942934  0.75309321
   0.74778203  0.49963748  0.50041825
   0.49455152  0.76169658  0.49355419
   0.49938843  0.50148846  0.74768302
   0.52060519  0.01570027  0.98146971
   0.00132869  0.51212187  0.98247327
   0.50182375  0.74359159  0.25611351
   0.24022523  0.01415968  0.74616153
   0.47905344  0.98207389  0.49747600
   0.73769972  0.97729210  0.76912739
   0.00584701  0.75871032  0.24954535
   0.74924427  0.49821832  0.24874886
   0.00894853  0.00363455  0.50740398
   0.49316879  0.51216559  0.49822190
   0.75015632  0.50803085  0.75408302
   0.74694981  0.75562515  0.49906814
HECN                                    
           1
     8.804165    0.026159   -0.004893
     0.032299    8.851509   -0.009675
     0.026729   -0.024843    8.832127
   Hf   Nb   Ti   N    C    Cr   Ta
   7   6   7  13  19   6   6
Direct configuration=     5
   0.99649845  0.99839238  0.99299221
   0.26772337  0.00071215  0.24441160
   0.24623813  0.49799120  0.24586832
   0.49963467  0.49837571  0.00124325
   0.50380395  0.23756385  0.74683490
   0.00233705  0.49907030  0.50031957
   0.49351135  0.76586764  0.75412381
   0.99381511  0.23740977  0.25790463
   0.75257154  0.74654210  0.00809525
   0.00362410  0.25185904  0.74447683
   0.75074227  0.25334831  0.50205545
   0.00054828  0.74826106  0.75172539
   0.24949828  0.49566715  0.75053622
   0.24964878  0.24833007  0.99374465
   0.50880884  0.25194266  0.25120497
   0.73881700  0.99236887  0.26630250
   0.75350078  0.25386971  0.99654046
   0.24745066  0.74842468  0.99856005
   0.25359855  0.24657077  0.50233728
   0.24926471  0.75304693  0.50078918
   0.25198842  0.24873331  0.24801660
   0.25779217  0.00078522  0.99345094
   0.00250634  0.24892888  0.00035879
   0.74776795  0.24580263  0.25086490
   0.74548922  0.00135100  0.00581541
   0.50895548  0.99931630  0.24963982
   0.99421438  0.48820675  0.24375133
   0.50155483  0.75938687  0.00536599
   0.98986120  0.00244632  0.74633317
   0.75313885  0.24604603  0.75397809
   0.74011478  0.00134218  0.50583007
   0.50058418  0.23633647  0.49450338
   0.50332986  0.00161085  0.73964836
   0.99613083  0.00011817  0.25132698
   0.50507469  0.24351938  0.00362322
   0.25303535  0.74954683  0.24859625
   0.24295026  0.50119122  0.99691577
   0.00376521  0.74268856  0.00205137
   0.74945662  0.75076055  0.25220078
   0.75934811  0.49776206  0.00174124
   0.49943166  0.49995071  0.25194333
   0.25060997  0.24770808  0.74874181
   0.25787145  0.99859116  0.50602154
   0.00405631  0.24810475  0.50138316
   0.24409225  0.75506225  0.75072617
   0.25237409  0.50067029  0.49810285
   0.00057648  0.75412022  0.50163429
   0.99678499  0.50034994  0.75424812
   0.74813511  0.75867755  0.75226824
   0.74719608  0.49922833  0.50071631
   0.49628308  0.76054854  0.49406380
   0.49999626  0.50158584  0.74663351
   0.51994923  0.01553333  0.98137239
   0.00079508  0.51180115  0.98282947
   0.50209367  0.74306400  0.25660947
   0.23991329  0.01373198  0.74614422
   0.47895306  0.98214517  0.49750923
   0.73853005  0.97712800  0.76830844
   0.00491083  0.76052186  0.25097631
   0.74767264  0.49992054  0.25082969
   0.01028049  0.00304654  0.50648185
   0.49386073  0.51394777  0.49833630
   0.74890693  0.51013968  0.75183050
   0.74803202  0.75292813  0.49821015
HECN                                    
           1
     8.778120    0.028188    0.001095
     0.034398    8.795964   -0.018010
     0.032664   -0.033043    8.810898
   Hf   Nb   Ti   N    C    Cr   Ta
   7   6   7  13  19   6   6
Direct configuration=     6
   0.99745524  0.99935651  0.99283395
   0.26879675  0.00074313  0.24351947
   0.24578576  0.49600166  0.24484773
   0.49785841  0.49830647  0.00077104
   0.50299017  0.23800818  0.74753059
   0.00222979  0.49895175  0.50306856
   0.49284164  0.76416935  0.75526863
   0.99286525  0.23685589  0.25714332
   0.75118177  0.74802637  0.00546225
   0.00432390  0.24999943  0.74571045
   0.75233478  0.25046052  0.49989670
   0.00120044  0.74898740  0.75377134
   0.24766365  0.49517405  0.75290204
   0.25150321  0.24717204  0.99239698
   0.50896396  0.25164732  0.24934185
   0.73623868  0.99449365  0.26232534
   0.74994450  0.25154735  0.99784431
   0.24776317  0.74852809  0.99826025
   0.25305906  0.24563261  0.50372398
   0.25046740  0.75425314  0.50089278
   0.25249322  0.24742514  0.24741222
   0.25615742  0.00178377  0.99396447
   0.00270409  0.24935257  0.00039054
   0.74603662  0.24527202  0.24833308
   0.74492757  0.00357059  0.00236493
   0.50995395  0.99948022  0.25025656
   0.99568410  0.49321104  0.24476596
   0.49955514  0.75917885  0.00440508
   0.99023443  0.00289034  0.74880089
   0.75244338  0.24750930  0.75518996
   0.74393447  0.00052610  0.50484416
   0.49864410  0.24017121  0.49442731
   0.50510850  0.00203300  0.74279250
   0.99689756 -0.00272815  0.25073877
   0.50430895  0.24218096  0.00364470
   0.25388660  0.75011843  0.24792082
   0.24247096  0.50074919  0.99682436
   0.00443463  0.74372575  0.00147980
   0.74714418  0.75190236  0.25321404
   0.75930466  0.49618130  0.00130287
   0.50111492  0.49859711  0.25218795
   0.25092871  0.24553061  0.74898606
   0.25677965  0.99962736  0.50719239
   0.00586063  0.24885345  0.50121204
   0.24438281  0.75662899  0.75139069
   0.25231329  0.50022517  0.49778165
   0.00181586  0.75286615  0.50118913
   0.99871006  0.50009322  0.75519534
   0.74795321  0.75690607  0.75357483
   0.74686666  0.50133761  0.49993678
   0.49387305  0.75892463  0.49399207
   0.50025873  0.50146148  0.74680539
   0.52226210  0.01517793  0.98083213
   0.00263153  0.51324841  0.98254678
   0.50087627  0.74312971  0.25579875
   0.23963963  0.01421291  0.74581022
   0.47977023  0.98222963  0.49711726
   0.73543759  0.97841334  0.77186317
   0.00555997  0.75998728  0.24987040
   0.74825512  0.49984024  0.24899352
   0.01127094  0.00298543  0.50588751
   0.49535916  0.51297725  0.49850707
   0.74933494  0.50933284  0.75449426
   0.74695324  0.75456402  0.49825019
HECN                                    
           1
     8.775393    0.028401    0.001722
     0.034617    8.790149   -0.018883
     0.033285   -0.033901    8.808675
   Hf   Nb   Ti   N    C    Cr   Ta
   7   6   7  13  19   6   6
Direct configuration=     7
   0.99755569  0.99945805  0.99281737
   0.26890953  0.00074628  0.24342577
   0.24573839  0.49579196  0.24474046
   0.49767194  0.49829918  0.00072160
   0.50290466  0.23805508  0.74760370
   0.00221834  0.49893954  0.50335705
   0.49277128  0.76399056  0.75538866
   0.99276558  0.23679749  0.25706344
   0.75103599  0.74818252  0.00518618
   0.00439735  0.24980361  0.74583967
   0.75250223  0.25015603  0.49966975
   0.00126875  0.74906411  0.75398608
   0.24747086  0.49512238  0.75315040
   0.25169807  0.24704986  0.99225530
   0.50898039  0.25161602  0.24914628
   0.73596818  0.99471718  0.26190836
   0.74957105  0.25130290  0.99798116
   0.24779600  0.74853894  0.99822878
   0.25300234  0.24553392  0.50386945
   0.25059365  0.75438020  0.50090369
   0.25254631  0.24728724  0.24734862
   0.25598570  0.00188906  0.99401858
   0.00272484  0.24939720  0.00039390
   0.74585503  0.24521591  0.24806745
   0.74486879  0.00380410  0.00200308
   0.51005874  0.99949752  0.25032122
   0.99583821  0.49373833  0.24487283
   0.49934523  0.75915689  0.00430435
   0.99027343  0.00293736  0.74905989
   0.75237023  0.24766360  0.75531734
   0.74433565  0.00043992  0.50474034
   0.49844029  0.24057526  0.49441985
   0.50529502  0.00207774  0.74312237
   0.99697819 -0.00302810  0.25067670
   0.50422858  0.24203997  0.00364687
   0.25397602  0.75017857  0.24784993
   0.24242065  0.50070262  0.99681476
   0.00450493  0.74383494  0.00141988
   0.74690126  0.75202282  0.25332065
   0.75930018  0.49601472  0.00125671
   0.50129168  0.49845449  0.25221336
   0.25096222  0.24530122  0.74901146
   0.25666490  0.99973667  0.50731544
   0.00605008  0.24893227  0.50119403
   0.24441323  0.75679411  0.75146056
   0.25230694  0.50017824  0.49774790
   0.00194606  0.75273395  0.50114220
   0.99891213  0.50006622  0.75529458
   0.74793406  0.75671957  0.75371179
   0.74683207  0.50155976  0.49985521
   0.49362004  0.75875360  0.49398455
   0.50028628  0.50144839  0.74682340
   0.52250501  0.01514037  0.98077523
   0.00282434  0.51340082  0.98251713
   0.50074850  0.74313659  0.25571376
   0.23961090  0.01426355  0.74577524
   0.47985606  0.98223847  0.49707608
   0.73511258  0.97854918  0.77223658
   0.00562823  0.75993083  0.24975424
   0.74831641  0.49983159  0.24880078
   0.01137499  0.00297891  0.50582506
   0.49551651  0.51287498  0.49852478
   0.74937971  0.50924808  0.75477370
   0.74683992  0.75473640  0.49825464
HECN                                    
           1
     8.807138    0.025698    0.004913
     0.031925    8.822011   -0.019305
     0.036619   -0.034436    8.824493
   Hf   Nb   Ti   N    C    Cr   Ta
   7   6   7  13  19   6   6
Direct configuration=     8
   0.99893496  0.99958494  0.99461987
   0.26835542  0.00038820  0.24373107
   0.24572113  0.49467109  0.24551273
   0.49703845  0.49819008  0.00056890
   0.50299031  0.24041519  0.74716860
   0.00103066  0.49988794  0.50479096
   0.49318909  0.76170618  0.75497589
   0.99162503  0.23673288  0.25687585
   0.75039647  0.74914412  0.00397818
   0.00429704  0.24839609  0.74628399
   0.75418335  0.24824345  0.49725809
   0.00113168  0.74981162  0.75417334
   0.24753674  0.49423279  0.75320266
   0.25321009  0.24519280  0.99166287
   0.50885587  0.25208803  0.24819952
   0.73576834  0.99670366  0.25824699
   0.74635923  0.24890776  0.99981613
   0.24808325  0.74913666  0.99833698
   0.25267420  0.24563300  0.50495486
   0.25082269  0.75447623  0.50086170
   0.25252022  0.24621396  0.24667854
   0.25473019  0.00268200  0.99450666
   0.00295205  0.25039462  0.00073958
   0.74516871  0.24454164  0.24585488
   0.74562750  0.00511169 -0.00002980
   0.50969020  0.99961119  0.25048132
   0.99660092  0.49759023  0.24567555
   0.49784469  0.75928921  0.00413252
   0.99063900  0.00292958  0.74867813
   0.75238346  0.24830858  0.75526449
   0.74757973  0.00084048  0.50406103
   0.49764727  0.24418320  0.49456490
   0.50659308  0.00138737  0.74579263
   0.99776348 -0.00347988  0.25096197
   0.50280683  0.24158299  0.00317097
   0.25448337  0.74989604  0.24728171
   0.24199515  0.49998965  0.99689644
   0.00393082  0.74513779  0.00166046
   0.74563111  0.75201634  0.25350017
   0.75904560  0.49586897  0.00116265
   0.50301644  0.49770167  0.25282342
   0.25097709  0.24443574  0.74927938
   0.25585130  0.00022424  0.50743680
   0.00679706  0.24827096  0.50113920
   0.24414401  0.75826832  0.75205316
   0.25365271  0.49965623  0.49824087
   0.00139950  0.75318378  0.50031544
   0.99892803  0.49990271  0.75625084
   0.74797951  0.75558556  0.75377494
   0.74649650  0.50224071  0.49969896
   0.49357267  0.75667897  0.49459013
   0.50101950  0.50125732  0.74624593
   0.52383293  0.01410962  0.97971446
   0.00468192  0.51466080  0.98320488
   0.49898339  0.74261884  0.25534263
   0.23861211  0.01368818  0.74541526
   0.48108850  0.98284375  0.49693558
   0.73221539  0.97892888  0.77577429
   0.00573577  0.75886823  0.24997077
   0.74852452  0.50078701  0.24866554
   0.01237348  0.00212391  0.50494402
   0.49630781  0.51211074  0.49870439
   0.74938057  0.50900613  0.75503662
   0.74659226  0.75520906  0.49818862
HECN                                    
           1
     8.807340    0.025681    0.004934
     0.031908    8.822214   -0.019307
     0.036640   -0.034440    8.824594
   Hf   Nb   Ti   N    C    Cr   Ta
   7   6   7  13  19   6   6
Direct configuration=     9
   0.99894370  0.99958575  0.99463132
   0.26835190  0.00038593  0.24373302
   0.24572101  0.49466398  0.24551763
   0.49703444  0.49818939  0.00056793
   0.50299086  0.24043017  0.74716584
   0.00102313  0.49989395  0.50480008
   0.49319173  0.76169169  0.75497326
   0.99161780  0.23673247  0.25687466
   0.75039242  0.74915022  0.00397051
   0.00429640  0.24838716  0.74628682
   0.75419401  0.24823132  0.49724276
   0.00113081  0.74981637  0.75417453
   0.24753715  0.49422714  0.75320299
   0.25321968  0.24518103  0.99165910
   0.50885508  0.25209102  0.24819351
   0.73576709  0.99671626  0.25822372
   0.74633885  0.24889256  0.99982780
   0.24808507  0.74914045  0.99833766
   0.25267211  0.24563363  0.50496176
   0.25082414  0.75447684  0.50086144
   0.25252005  0.24620716  0.24667428
   0.25472222  0.00268703  0.99450976
   0.00295350  0.25040095  0.00074178
   0.74516436  0.24453736  0.24584082
   0.74563232  0.00511999 -0.00004272
   0.50968786  0.99961191  0.25048234
   0.99660576  0.49761467  0.24568065
   0.49783517  0.75929005  0.00413143
   0.99064132  0.00292953  0.74867570
   0.75238355  0.24831267  0.75526416
   0.74760032  0.00084303  0.50405671
   0.49764225  0.24420608  0.49456582
   0.50660131  0.00138300  0.74580960
   0.99776846 -0.00348274  0.25096378
   0.50279781  0.24158009  0.00316795
   0.25448658  0.74989425  0.24727810
   0.24199245  0.49998513  0.99689696
   0.00392718  0.74514605  0.00166199
   0.74562306  0.75201630  0.25350131
   0.75904399  0.49586804  0.00116205
   0.50302738  0.49769690  0.25282729
   0.25097718  0.24443025  0.74928109
   0.25584614  0.00022733  0.50743757
   0.00680180  0.24826676  0.50113885
   0.24414230  0.75827767  0.75205693
   0.25366125  0.49965292  0.49824400
   0.00139604  0.75318664  0.50031019
   0.99892813  0.49990167  0.75625692
   0.74797980  0.75557837  0.75377534
   0.74649437  0.50224503  0.49969796
   0.49357237  0.75666581  0.49459398
   0.50102415  0.50125611  0.74624226
   0.52384136  0.01410308  0.97970771
   0.00469371  0.51466880  0.98320925
   0.49897219  0.74261555  0.25534028
   0.23860578  0.01368453  0.74541298
   0.48109632  0.98284759  0.49693469
   0.73219700  0.97893129  0.77579678
   0.00573645  0.75886149  0.24997215
   0.74852585  0.50079307  0.24866468
   0.01237982  0.00211848  0.50493842
   0.49631283  0.51210589  0.49870553
   0.74938058  0.50900460  0.75503829
   0.74659069  0.75521206  0.49818820
HECN                                    
           1
     8.798158    0.022429    0.002721
     0.028658    8.809025   -0.013795
     0.034391   -0.028919    8.806498
   Hf   Nb   Ti   N    C    Cr   Ta
   7   6   7  13  19   6   6
Direct configuration=    10
   0.00000959  0.99962228  0.99576062
   0.26785499  0.00023065  0.24499357
   0.24611712  0.49446378  0.24665625
   0.49696724  0.49833550  0.00106106
   0.50383177  0.24089373  0.74595084
   0.00092205  0.50029262  0.50481493
   0.49359230  0.76119400  0.75398168
   0.99105217  0.23729706  0.25664824
   0.75026580  0.74954005  0.00428236
   0.00368713  0.24792505  0.74638522
   0.75500697  0.24733869  0.49547387
   0.00093379  0.75034209  0.75363112
   0.24778095  0.49363076  0.75227798
   0.25381839  0.24383102  0.99179149
   0.50859673  0.25254827  0.24853019
   0.73672726  0.99746706  0.25631975
   0.74471605  0.24783647  0.00120667
   0.24800454  0.74938147  0.99856531
   0.25257793  0.24603924  0.50535788
   0.25102714  0.75401020  0.50090149
   0.25219444  0.24598960  0.24637575
   0.25401483  0.00282688  0.99498367
   0.00301858  0.25077367  0.00112049
   0.74509402  0.24448376  0.24473827
   0.74702374  0.00494584  0.00011715
   0.50868750  0.99969251  0.25055288
   0.99665005  0.49912003  0.24628366
   0.49743997  0.75924798  0.00431020
   0.99105366  0.00257333  0.74761413
   0.75258366  0.24821511  0.75430442
   0.74910517  0.00161997  0.50319910
   0.49800528  0.24617821  0.49462969
   0.50724612  0.00114990  0.74714121
   0.99801950 -0.00237747  0.25149533
   0.50178887  0.24169523  0.00248119
   0.25429307  0.74904629  0.24726245
   0.24202944  0.49951371  0.99720331
   0.00304848  0.74587666  0.00205033
   0.74536212  0.75181741  0.25277920
   0.75879149  0.49672870  0.00128895
   0.50325747  0.49768282  0.25275465
   0.25086685  0.24461424  0.74941811
   0.25675018 -0.00012770  0.50695502
   0.00656287  0.24770784  0.50122919
   0.24392799  0.75879834  0.75219825
   0.25400486  0.49936560  0.49903930
   0.00041110  0.75386329  0.49996980
   0.99814408  0.49992479  0.75713523
   0.74806224  0.75618579  0.75311511
   0.74670069  0.50161939  0.49985774
   0.49470479  0.75632739  0.49485924
   0.50146757  0.50094592  0.74613774
   0.52388592  0.01369169  0.97870529
   0.00576906  0.51590197  0.98379034
   0.49737990  0.74164065  0.25561405
   0.23738196  0.01308698  0.74483439
   0.48171943  0.98281151  0.49744259
   0.73049549  0.97743926  0.77776595
   0.00598043  0.75812583  0.25024224
   0.74883206  0.50123994  0.24900715
   0.01241000  0.00180312  0.50454826
   0.49621185  0.51148236  0.49837250
   0.74966468  0.50848876  0.75451216
   0.74646903  0.75604265  0.49797393
HECN                                    
           1
     8.796776    0.021940    0.002388
     0.028169    8.807041   -0.012966
     0.034052   -0.028089    8.803776
   Hf   Nb   Ti   N    C    Cr   Ta
   7   6   7  13  19   6   6
Direct configuration=    11
   0.00017015  0.99962773  0.99593088
   0.26778020  0.00020711  0.24518358
   0.24617680  0.49443354  0.24682791
   0.49695714  0.49835746  0.00113537
   0.50395838  0.24096372  0.74576768
   0.00090685  0.50035267  0.50481712
   0.49365256  0.76111914  0.75383228
   0.99096702  0.23738210  0.25661404
   0.75024677  0.74959874  0.00432932
   0.00359536  0.24785539  0.74640008
   0.75512927  0.24720442  0.49520734
   0.00090413  0.75042133  0.75354915
   0.24781759  0.49354102  0.75213861
   0.25390847  0.24362765  0.99181159
   0.50855786  0.25261711  0.24858089
   0.73687182  0.99758040  0.25603271
   0.74447167  0.24767714  0.00141456
   0.24799243  0.74941775  0.99859960
   0.25256379  0.24610030  0.50541754
   0.25105769  0.75393991  0.50090758
   0.25214539  0.24595683  0.24633075
   0.25390833  0.00284787  0.99505506
   0.00302841  0.25082979  0.00117754
   0.74508339  0.24447579  0.24457208
   0.74723327  0.00491966  0.00014132
   0.50853686  0.99970460  0.25056347
   0.99665682  0.49934676  0.24637441
   0.49738046  0.75924160  0.00433713
   0.99111569  0.00251979  0.74745416
   0.75261375  0.24820051  0.75415977
   0.74933179  0.00173719  0.50306981
   0.49806006  0.24647533  0.49463915
   0.50734326  0.00111469  0.74734198
   0.99805739 -0.00221099  0.25157536
   0.50163691  0.24171258  0.00237762
   0.25426389  0.74891853  0.24726017
   0.24203499  0.49944267  0.99724953
   0.00291621  0.74598665  0.00210876
   0.74532279  0.75178749  0.25267036
   0.75875352  0.49685834  0.00130799
   0.50329212  0.49768072  0.25274371
   0.25085025  0.24464194  0.74943875
   0.25688628 -0.00018109  0.50688235
   0.00652686  0.24762361  0.50124285
   0.24389575  0.75887675  0.75221950
   0.25405662  0.49932226  0.49915922
   0.00026280  0.75396521  0.49991839
   0.99802604  0.49992815  0.75726760
   0.74807466  0.75627737  0.75301553
   0.74673173  0.50152514  0.49988189
   0.49487530  0.75627644  0.49489930
   0.50153432  0.50089922  0.74612203
   0.52389257  0.01362980  0.97855423
   0.00593109  0.51608776  0.98387786
   0.49714008  0.74149367  0.25565535
   0.23719761  0.01299694  0.74474719
   0.48181328  0.98280606  0.49751917
   0.73023926  0.97721420  0.77806285
   0.00601713  0.75801499  0.25028304
   0.74887821  0.50130725  0.24905874
   0.01241451  0.00175565  0.50448948
   0.49619659  0.51138844  0.49832236
   0.74970741  0.50841111  0.75443292
   0.74645075  0.75616779  0.49794155
HECN                                    
           1
     8.810352    0.022349   -0.000028
     0.028608    8.814236   -0.011337
     0.031677   -0.026450    8.819910
   Hf   Nb   Ti   N    C    Cr   Ta
   7   6   7  13  19   6   6
Direct configuration=    12
   0.00095809  0.99972130  0.99584310
   0.26749105  0.00017930  0.24664080
   0.24646735  0.49439251  0.24722005