HECN                                    
           1
    11.240000    0.000000    0.000000
     0.000000   11.240000    0.000000
     0.000000    0.000000   11.240000
   Zr   Mo   Hf   N    C    Nb   V 
   7   6   7  13  19   6   6
Direct configuration=     1
   0.00000000  0.00000000  0.00000000
   0.25000000  0.00000000  0.25000000
   0.25000000  0.50000000  0.25000000
   0.50000000  0.50000000  0.00000000
   0.50000000  0.25000000  0.75000004
   0.00000000  0.50000000  0.50000000
   0.50000000  0.75000004  0.75000004
   0.00000000  0.25000000  0.25000000
   0.75000004  0.75000004  0.00000000
   0.00000000  0.25000000  0.75000004
   0.75000004  0.25000000  0.50000000
   0.00000000  0.75000004  0.75000004
   0.25000000  0.50000000  0.75000004
   0.25000000  0.25000000  0.00000000
   0.50000000  0.25000000  0.25000000
   0.75000004  0.00000000  0.25000000
   0.75000004  0.25000000  0.00000000
   0.25000000  0.75000004  0.00000000
   0.25000000  0.25000000  0.50000000
   0.25000000  0.75000004  0.50000000
   0.25000000  0.25000000  0.25000000
   0.25000000  0.00000000  0.00000000
   0.00000000  0.25000000  0.00000000
   0.75000004  0.25000000  0.25000000
   0.75000004  0.00000000  0.00000000
   0.50000000  0.00000000  0.25000000
   0.00000000  0.50000000  0.25000000
   0.50000000  0.75000004  0.00000000
   0.00000000  0.00000000  0.75000004
   0.75000004  0.25000000  0.75000004
   0.75000004  0.00000000  0.50000000
   0.50000000  0.25000000  0.50000000
   0.50000000  0.00000000  0.75000004
   0.00000000  0.00000000  0.25000000
   0.50000000  0.25000000  0.00000000
   0.25000000  0.75000004  0.25000000
   0.25000000  0.50000000  0.00000000
   0.00000000  0.75000004  0.00000000
   0.75000004  0.75000004  0.25000000
   0.75000004  0.50000000  0.00000000
   0.50000000  0.50000000  0.25000000
   0.25000000  0.25000000  0.75000004
   0.25000000  0.00000000  0.50000000
   0.00000000  0.25000000  0.50000000
   0.25000000  0.75000004  0.75000004
   0.25000000  0.50000000  0.50000000
   0.00000000  0.75000004  0.50000000
   0.00000000  0.50000000  0.75000004
   0.75000004  0.75000004  0.75000004
   0.75000004  0.50000000  0.50000000
   0.50000000  0.75000004  0.50000000
   0.50000000  0.50000000  0.75000004
   0.50000000  0.00000000  0.00000000
   0.00000000  0.50000000  0.00000000
   0.50000000  0.75000004  0.25000000
   0.25000000  0.00000000  0.75000004
   0.50000000  0.00000000  0.50000000
   0.75000004  0.00000000  0.75000004
   0.00000000  0.75000004  0.25000000
   0.75000004  0.50000000  0.25000000
   0.00000000  0.00000000  0.50000000
   0.50000000  0.50000000  0.50000000
   0.75000004  0.50000000  0.75000004
   0.75000004  0.75000004  0.50000000
HECN                                    
           1
     8.101723   -0.002026    0.001151
    -0.002026    8.111171    0.001791
     0.001151    0.001791    8.110295
   Zr   Mo   Hf   N    C    Nb   V 
   7   6   7  13  19   6   6
Direct configuration=     2
  -0.00076569 -0.00155839  0.00046893
   0.24815909 -0.00170929  0.25204707
   0.25021595  0.50161450  0.25023032
   0.50054537  0.49985010 -0.00018682
   0.49924171  0.25137868  0.75002885
  -0.00056546  0.49994881  0.50083609
   0.50028915  0.74878577  0.74858639
  -0.00081712  0.24763841  0.25225203
   0.75296452  0.74737013 -0.00018283
   0.00220880  0.25215664  0.74735851
   0.75286465  0.25206847  0.50073077
  -0.00057941  0.74791134  0.74967228
   0.24994091  0.50011258  0.75009406
   0.24973762  0.25183403 -0.00240264
   0.50116818  0.25182521  0.24975076
   0.75204256 -0.00146559  0.25112135
   0.74996934  0.25202097 -0.00048552
   0.24846027  0.74824197 -0.00058783
   0.24849593  0.25017191  0.50233449
   0.24974352  0.74987225  0.50067959
   0.25291951  0.24959825  0.24980259
   0.24915898  0.00028885  0.00095040
   0.00016217  0.24930572  0.00003907
   0.74751894  0.24703437  0.24784934
   0.75063356  0.00269389  0.00123977
   0.50116091  0.00164535  0.25000438
   0.00153016  0.49917862  0.24999372
   0.49745879  0.74977105 -0.00060378
  -0.00058299  0.00012519  0.75217122
   0.74833284  0.24791577  0.75228539
   0.74846415  0.00085164  0.49887608
   0.49780718  0.24826184  0.49916847
   0.50049419  0.00017555  0.74992368
  -0.00118907  0.00128364  0.24845052
   0.50015188  0.24903940  0.00093973
   0.25213052  0.75042331  0.24953866
   0.24917516  0.49964752  0.00093180
   0.00075748  0.74953523 -0.00102491
   0.74801591  0.75204647  0.24897197
   0.75102760  0.49873551  0.00019986
   0.49921579  0.49938010  0.24903711
   0.25034294  0.24885375  0.75021994
   0.25176583  0.00042073  0.50008732
   0.00024699  0.25082093  0.50008356
   0.25053136  0.75121997  0.75029250
   0.24864491  0.49962303  0.49911496
   0.00152459  0.74910535  0.50125642
   0.00052721  0.49993325  0.75095745
   0.74985310  0.75206406  0.75096479
   0.75105962  0.49861541  0.49981285
   0.49844505  0.75186103  0.49956843
   0.49947081  0.49978436  0.75096198
   0.50103966  0.00131736 -0.00038302
  -0.00081730  0.50238162 -0.00212771
   0.50110745  0.74801440  0.25214096
   0.24928051 -0.00029164  0.74729188
   0.49874059 -0.00234066  0.50024212
   0.75098867 -0.00231806  0.74902396
  -0.00069456  0.75161896  0.25024395
   0.74877237  0.50211446  0.25022951
   0.00089960  0.00020757  0.49893391
   0.50035936  0.50173351  0.50017280
   0.74987611  0.50191181  0.74979458
   0.75037227  0.74834369  0.50002660
HECN                                    
           1
     9.056865   -0.001409    0.000801
    -0.001409    9.063437    0.001246
     0.000801    0.001246    9.062828
   Zr   Mo   Hf   N    C    Nb   V 
   7   6   7  13  19   6   6
Direct configuration=     3
  -0.00044219 -0.00090101  0.00027094
   0.24893671 -0.00098800  0.25118335
   0.25012461  0.50093357  0.25013333
   0.50031510  0.49991325 -0.00010800
   0.49956175  0.25079730  0.75001678
  -0.00032664  0.49997054  0.50048339
   0.50016710  0.74929773  0.74918257
  -0.00047171  0.24863471  0.25130185
   0.75171305  0.74847898 -0.00010578
   0.00127576  0.25124659  0.74847304
   0.75165491  0.25119585  0.50042289
  -0.00033455  0.74879229  0.74981030
   0.24996585  0.50006511  0.75005441
   0.24984807  0.25106032 -0.00138905
   0.50067471  0.25105527  0.24985613
   0.75118034 -0.00084758  0.25064835
   0.74998206  0.25116857 -0.00028054
   0.24911057  0.74898355 -0.00034014
   0.24913114  0.25009978  0.50134973
   0.24985187  0.74992624  0.50039291
   0.25168679  0.24976736  0.24988599
   0.24951412  0.00016720  0.00054950
   0.00009377  0.24959852  0.00002254
   0.74856676  0.24828520  0.24875606
   0.75036585  0.00155778  0.00071713
   0.50067055  0.00095129  0.25000276
   0.00088414  0.49952488  0.24999638
   0.49853179  0.74986784 -0.00034928
  -0.00033671  0.00007266  0.75125539
   0.74903717  0.24879519  0.75132114
   0.74911252  0.00049252  0.49935013
   0.49873322  0.24899507  0.49951892
   0.50028550  0.00010145  0.74995594
  -0.00068722  0.00074224  0.24910414
   0.50008791  0.24944461  0.00054327
   0.25123085  0.75024453  0.24973342
   0.24952354  0.49979636  0.00053868
   0.00043763  0.74973109 -0.00059260
   0.74885342  0.75118350  0.24940566
   0.75059386  0.49926873  0.00011550
   0.49954693  0.49964154  0.24944315
   0.25019827  0.24933717  0.75012710
   0.25102017  0.00024311  0.50005063
   0.00014262  0.25047468  0.50004841
   0.25030689  0.75070543  0.75016929
   0.24921708  0.49978208  0.49948815
   0.00088101  0.74948264  0.50072647
   0.00030466  0.49996143  0.75055364
   0.74991499  0.75119366  0.75055804
   0.75061235  0.49919924  0.49989172
   0.49910140  0.75107627  0.49975054
   0.49969434  0.49987545  0.75055618
   0.50060051  0.00076161 -0.00022128
  -0.00047258  0.50137705 -0.00123007
   0.50064017  0.74885194  0.25123779
   0.24958418 -0.00016882  0.74843411
   0.49927263 -0.00135332  0.50013970
   0.75057141 -0.00134061  0.74943552
  -0.00040144  0.75093627  0.25014116
   0.74929054  0.50122283  0.25013283
   0.00051966  0.00011983  0.49938366
   0.50020745  0.50100237  0.50010010
   0.74992823  0.50110549  0.74988142
   0.75021527  0.74904223  0.50001525
HECN                                    
           1
     8.983662   -0.001457    0.000828
    -0.001457    8.990455    0.001288
     0.000828    0.001288    8.989825
   Zr   Mo   Hf   N    C    Nb   V 
   7   6   7  13  19   6   6
Direct configuration=     4
  -0.00046436 -0.00094610  0.00028452
   0.24888341 -0.00103746  0.25124258
   0.25013087  0.50098028  0.25013999
   0.50033088  0.49990891 -0.00011341
   0.49953981  0.25083717  0.75001761
  -0.00034301  0.49996905  0.50050758
   0.50017547  0.74926261  0.74914168
  -0.00049538  0.24856639  0.25136701
   0.75179885  0.74840292 -0.00011106
   0.00133972  0.25130900  0.74839661
   0.75173784  0.25125570  0.50044402
  -0.00035133  0.74873187  0.74980083
   0.24996414  0.50006837  0.75005713
   0.24984049  0.25111339 -0.00145857
   0.50070854  0.25110808  0.24984891
   0.75123945 -0.00088997  0.25068079
   0.74998118  0.25122704 -0.00029459
   0.24906599  0.74893269 -0.00035714
   0.24908760  0.25010474  0.50141727
   0.24984444  0.74992254  0.50041257
   0.25177130  0.24975575  0.24988028
   0.24948978  0.00017555  0.00057699
   0.00009846  0.24957844  0.00002367
   0.74849493  0.24819941  0.24869386
   0.75038420  0.00163571  0.00075298
   0.50070416  0.00099890  0.25000287
   0.00092843  0.49950113  0.24999620
   0.49845823  0.74986121 -0.00036674
  -0.00035359  0.00007627  0.75131820
   0.74898889  0.24873488  0.75138726
   0.74906806  0.00051715  0.49931762
   0.49866974  0.24894478  0.49949487
   0.50029980  0.00010653  0.74995372
  -0.00072163  0.00077937  0.24905931
   0.50009230  0.24941682  0.00057046
   0.25129252  0.75025678  0.24972007
   0.24949966  0.49978615  0.00056564
   0.00045955  0.74971765 -0.00062225
   0.74879600  0.75124269  0.24937592
   0.75062360  0.49923215  0.00012128
   0.49952423  0.49962361  0.24941530
   0.25020819  0.24930401  0.75013347
   0.25107129  0.00025529  0.50005315
   0.00014977  0.25049843  0.50005082
   0.25032227  0.75074072  0.75017774
   0.24917785  0.49977117  0.49946255
   0.00092513  0.74945676  0.50076282
   0.00031992  0.49995950  0.75058134
   0.74991074  0.75125336  0.75058594
   0.75064302  0.49915919  0.49988631
   0.49905639  0.75113010  0.49973806
   0.49967902  0.49986921  0.75058401
   0.50063061  0.00079973 -0.00023237
  -0.00049622  0.50144595 -0.00129163
   0.50067222  0.74879450  0.25129973
   0.24956336 -0.00017725  0.74835577
   0.49923616 -0.00142104  0.50014672
   0.75060002 -0.00140765  0.74940729
  -0.00042154  0.75098309  0.25014821
   0.74925501  0.50128399  0.25013946
   0.00054571  0.00012585  0.49935282
   0.50021786  0.50105252  0.50010509
   0.74992465  0.50116080  0.74987547
   0.75022604  0.74899432  0.50001602
HECN                                    
           1
     8.947297   -0.001480    0.000841
    -0.001480    8.954199    0.001308
     0.000841    0.001308    8.953559
   Zr   Mo   Hf   N    C    Nb   V 
   7   6   7  13  19   6   6
Direct configuration=     5
  -0.00047547 -0.00096868  0.00029132
   0.24885671 -0.00106224  0.25127224
   0.25013400  0.50100367  0.25014332
   0.50033879  0.49990674 -0.00011611
   0.49952882  0.25085715  0.75001803
  -0.00035121  0.49996831  0.50051970
   0.50017966  0.74924502  0.74912120
  -0.00050724  0.24853217  0.25139965
   0.75184182  0.74836482 -0.00011371
   0.00137175  0.25134025  0.74835833
   0.75177938  0.25128567  0.50045460
  -0.00035974  0.74870161  0.74979609
   0.24996329  0.50007000  0.75005849
   0.24983669  0.25113996 -0.00149338
   0.50072548  0.25113452  0.24984529
   0.75126906 -0.00091120  0.25069704
   0.74998074  0.25125632 -0.00030163
   0.24904366  0.74890722 -0.00036565
   0.24906579  0.25010722  0.50145109
   0.24984072  0.74992068  0.50042242
   0.25181363  0.24974994  0.24987741
   0.24947758  0.00017973  0.00059076
   0.00010081  0.24956838  0.00002424
   0.74845895  0.24815644  0.24866271
   0.75039339  0.00167473  0.00077093
   0.50072099  0.00102273  0.25000293
   0.00095061  0.49948923  0.24999611
   0.49842139  0.74985788 -0.00037548
  -0.00036205  0.00007807  0.75134966
   0.74896471  0.24870468  0.75142038
   0.74904580  0.00052949  0.49930134
   0.49863794  0.24891960  0.49948283
   0.50030697  0.00010908  0.74995262
  -0.00073887  0.00079797  0.24903686
   0.50009450  0.24940290  0.00058408
   0.25132341  0.75026292  0.24971338
   0.24948770  0.49978104  0.00057915
   0.00047054  0.74971092 -0.00063710
   0.74876724  0.75127233  0.24936102
   0.75063849  0.49921383  0.00012418
   0.49951286  0.49961463  0.24940135
   0.25021316  0.24928741  0.75013666
   0.25109689  0.00026138  0.50005441
   0.00015335  0.25051032  0.50005203
   0.25032998  0.75075840  0.75018198
   0.24915820  0.49976571  0.49944973
   0.00094723  0.74944380  0.50078102
   0.00032756  0.49995853  0.75059521
   0.74990861  0.75128326  0.75059991
   0.75065838  0.49913914  0.49988360
   0.49903385  0.75115706  0.49973180
   0.49967134  0.49986608  0.75059795
   0.50064569  0.00081882 -0.00023792
  -0.00050806  0.50148045 -0.00132246
   0.50068827  0.74876573  0.25133075
   0.24955293 -0.00018147  0.74831654
   0.49921790 -0.00145495  0.50015023
   0.75061435 -0.00144123  0.74939315
  -0.00043161  0.75100655  0.25015174
   0.74923722  0.50131462  0.25014279
   0.00055875  0.00012886  0.49933737
   0.50022307  0.50107764  0.50010759
   0.74992286  0.50118849  0.74987249
   0.75023143  0.74897032  0.50001641
HECN                                    
           1
     8.912408    0.002453    0.000950
     0.002463    8.958064    0.002668
     0.000951    0.002674    8.916051
   Zr   Mo   Hf   N    C    Nb   V 
   7   6   7  13  19   6   6
Direct configuration=     6
  -0.00244082 -0.00226545  0.00014464
   0.24563606 -0.00062511  0.25316731
   0.24850158  0.50104730  0.25120738
   0.50347532  0.50165749 -0.00059717
   0.50082346  0.25183013  0.74643254
  -0.00433286  0.50096748  0.49956018
   0.50327037  0.74790047  0.74685666
  -0.00318509  0.24249161  0.25520611
   0.75849258  0.74286102 -0.00005452
   0.00420746  0.25529596  0.74427440
   0.75648366  0.25542068  0.50187317
  -0.00333388  0.74484571  0.74895522
   0.25130665  0.49980856  0.75003085
   0.24493735  0.25048101 -0.00304339
   0.50343453  0.25323066  0.25326692
   0.75461936 -0.00321722  0.25467200
   0.75351618  0.25434863 -0.00140728
   0.24657044  0.74885590 -0.00166721
   0.24806649  0.25037492  0.50337083
   0.24817032  0.74950676  0.50194995
   0.25312651  0.24927092  0.25047559
   0.25077063  0.00010011 -0.00090420
   0.00034166  0.25216404  0.00012216
   0.74841402  0.25098819  0.24968316
   0.74863172  0.00224655  0.00090032
   0.50388368  0.00097088  0.25041572
  -0.00550895  0.50165363  0.24696542
   0.49823480  0.75226461  0.00142415
  -0.00137151 -0.00009558  0.74593933
   0.75097941  0.25071092  0.75064386
   0.75215881 -0.00211373  0.49994211
   0.49937531  0.25141810  0.49789156
   0.50106650  0.00000454  0.74933396
  -0.00319512 -0.00182971  0.25603933
   0.50073379  0.24540551  0.00205944
   0.25014373  0.75072577  0.24964379
   0.24419601  0.49970225 -0.00222191
  -0.00268220  0.74528573  0.00150487
   0.75134256  0.74519908  0.25179875
   0.75570842  0.50245640  0.00068846
   0.50787370  0.50185134  0.25689028
   0.24568705  0.24909913  0.74961184
   0.24815252  0.00041462  0.50330005
  -0.00402589  0.24341844  0.50055290
   0.24622792  0.75099683  0.74974124
   0.25470171  0.49955972  0.50289900
  -0.00499282  0.75712586  0.49943250
  -0.00324299  0.50013940  0.75444558
   0.75389525  0.74828661  0.74782365
   0.74354406  0.50116249  0.49941934
   0.50478497  0.74791788  0.49669828
   0.50307854  0.49986201  0.74293831
   0.50377640  0.00266028 -0.00095163
  -0.00398498  0.50414080 -0.00317913
   0.50482520  0.74591696  0.25467368
   0.24642426 -0.00026842  0.74497529
   0.49823321 -0.00583255  0.50027962
   0.75393582 -0.00496025  0.74618305
  -0.00320891  0.75593710  0.25079571
   0.74690012  0.50571220  0.25094769
   0.00139069  0.00106299  0.49736305
   0.50225104  0.50445030  0.49995371
   0.74802182  0.50518101  0.74930004
   0.75118305  0.74482125  0.49936214
HECN                                    
           1
     8.894003    0.004529    0.001007
     0.004543    8.960103    0.003385
     0.001008    0.003394    8.896265
   Zr   Mo   Hf   N    C    Nb   V 
   7   6   7  13  19   6   6
Direct configuration=     7
  -0.00348134 -0.00294876  0.00006706
   0.24393034 -0.00039403  0.25417119
   0.24763705  0.50107060  0.25177106
   0.50513598  0.50257995 -0.00085217
   0.50150888  0.25234316  0.74453309
  -0.00644171  0.50149534  0.49905184
   0.50490749  0.74719096  0.74565714
  -0.00460186  0.23930678  0.25722304
   0.76201600  0.73995736 -0.00002277
   0.00570832  0.25738144  0.74211065
   0.75897401  0.25759983  0.50262428
  -0.00490804  0.74281328  0.74851011
   0.25201814  0.49967039  0.75001622
   0.24234290  0.25013481 -0.00386441
   0.50486869  0.25433502  0.25507930
   0.75639414 -0.00443427  0.25677786
   0.75538777  0.25597845 -0.00199325
   0.24526068  0.74882952 -0.00235667
   0.24753721  0.25051615  0.50438778
   0.24728578  0.74928877  0.50275918
   0.25382190  0.24901799  0.25079249
   0.25145544  0.00005795 -0.00169614
   0.00046860  0.25353264  0.00017383
   0.74838955  0.25248127  0.25022350
   0.74769863  0.00254847  0.00096883
   0.50555861  0.00094278  0.25063437
  -0.00893033  0.50279664  0.24535982
   0.49813542  0.75353356  0.00237729
  -0.00190602 -0.00018647  0.74307329
   0.75204590  0.25176839  0.75023233
   0.75380802 -0.00350825  0.50028174
   0.49976523  0.25273549  0.49704840
   0.50146876 -0.00005071  0.74900624
  -0.00449534 -0.00321526  0.25974904
   0.50107328  0.24329745  0.00284131
   0.24951888  0.75097010  0.24960690
   0.24139365  0.49966216 -0.00370569
  -0.00435082  0.74295293  0.00263993
   0.75270782  0.74199590  0.25309057
   0.75839261  0.50416495  0.00098708
   0.51230090  0.50302819  0.26085722
   0.24329015  0.24900094  0.74933386
   0.24659316  0.00049583  0.50501940
  -0.00623750  0.23967987  0.50081883
   0.24405547  0.75112354  0.74950777
   0.25763749  0.49944954  0.50472619
  -0.00814037  0.76117803  0.49871757
  -0.00513397  0.50023529  0.75648528
   0.75600722  0.74670580  0.74635316
   0.73977596  0.50223107  0.49917328
   0.50783145  0.74620880  0.49509152
   0.50488299  0.49985968  0.73888068
   0.50543395  0.00363060 -0.00132988
  -0.00582691  0.50554453 -0.00416287
   0.50701670  0.74441360  0.25644477
   0.24476741 -0.00031328  0.74320532
   0.49771276 -0.00814061  0.50034852
   0.75569566 -0.00681631  0.74448280
  -0.00468088  0.75853754  0.25113647
   0.74566139  0.50803149  0.25137373
   0.00183107  0.00155551  0.49631709
   0.50332424  0.50622822  0.49987191
   0.74701413  0.50728673  0.74899649
   0.75168798  0.74263331  0.49901588
HECN                                    
           1
     9.006284   -0.005523    0.007278
    -0.005557    9.027087   -0.003092
     0.007282   -0.003054    8.997399
   Zr   Mo   Hf   N    C    Nb   V 
   7   6   7  13  19   6   6
Direct configuration=     8
  -0.00616610 -0.00438436 -0.00039093
   0.24522296 -0.00016895  0.25493610
   0.24734660  0.50127950  0.25155515
   0.50405815  0.50242526 -0.00087978
   0.50055854  0.25154697  0.74375288
  -0.00851413  0.50178596  0.49876515
   0.50653861  0.74852937  0.74535113
  -0.00743577  0.23287891  0.26173395
   0.76498350  0.73637392  0.00110840
   0.00731869  0.26305534  0.73913130
   0.76049789  0.26079263  0.50280725
  -0.00801025  0.73861710  0.74916603
   0.25405515  0.49858038  0.74931560
   0.24249794  0.25045224 -0.00286705
   0.50725479  0.25540400  0.25643941
   0.75302667 -0.00588702  0.25976212
   0.75718671  0.25811522 -0.00289742
   0.24342079  0.74911608 -0.00179160
   0.24615888  0.25114555  0.50285797
   0.24589109  0.74905711  0.50178737
   0.25370142  0.24895270  0.25171959
   0.25236962 -0.00024154 -0.00188716
  -0.00013197  0.25345028  0.00115246
   0.75056072  0.25310659  0.25147156
   0.74672034  0.00254897  0.00152073
   0.50664851  0.00088836  0.25046569
  -0.01230576  0.50229254  0.24574051
   0.49830683  0.75586829  0.00267774
  -0.00226799  0.00018170  0.74022468
   0.75412424  0.25256088  0.74929334
   0.75507299 -0.00499752  0.50157075
   0.50065764  0.25268091  0.49710501
   0.50176162 -0.00012459  0.74900782
  -0.00285409 -0.00708512  0.26205602
   0.50172641  0.24231218  0.00215998
   0.24836731  0.75065516  0.25016465
   0.24213977  0.49935963 -0.00379908
  -0.00344111  0.74412881  0.00447486
   0.75570337  0.73968518  0.25405018
   0.75591026  0.50420414  0.00098642
   0.51450066  0.50326238  0.26203117
   0.24395923  0.24898990  0.74956104
   0.24502973 -0.00009932  0.50433833
  -0.00624544  0.23893208  0.50210025
   0.24338900  0.75112723  0.74915966
   0.25767479  0.49981572  0.50535021
  -0.01129016  0.76302534  0.49777736
  -0.00789858  0.49915615  0.75340072
   0.75582856  0.74427157  0.74457518
   0.73830465  0.50334448  0.49921623
   0.50913255  0.74407944  0.49576602
   0.50769664  0.49990672  0.73700697
   0.50788304  0.00584118 -0.00253823
  -0.00472996  0.50701150 -0.00354042
   0.50961486  0.74304861  0.25692298
   0.24147978 -0.00094141  0.74320283
   0.49634533 -0.01191509  0.50108480
   0.75826342 -0.01014640  0.74067626
  -0.00711924  0.76471732  0.25258478
   0.74416938  0.51346481  0.25249151
   0.00342834  0.00121961  0.49462521
   0.50480597  0.51147409  0.49941117
   0.74414724  0.51314950  0.74720740
   0.75297003  0.73812249  0.49779047
HECN                                    
           1
     8.979841   -0.003156    0.005801
    -0.003179    9.011312   -0.001567
     0.005804   -0.001535    8.973581
   Zr   Mo   Hf   N    C    Nb   V 
   7   6   7  13  19   6   6
Direct configuration=     9
  -0.00554140 -0.00404800 -0.00028447
   0.24492240 -0.00022203  0.25475815
   0.24741406  0.50123078  0.25160534
   0.50430886  0.50246170 -0.00087350
   0.50077964  0.25173347  0.74393454
  -0.00803226  0.50171861  0.49883152
   0.50615886  0.74821613  0.74542242
  -0.00677427  0.23438147  0.26068416
   0.76429447  0.73721062  0.00084608
   0.00694219  0.26172909  0.73982437
   0.76014267  0.26004585  0.50276436
  -0.00728756  0.73959870  0.74901350
   0.25358157  0.49883477  0.74947926
   0.24246196  0.25037783 -0.00309933
   0.50669979  0.25515327  0.25612290
   0.75381071 -0.00554704  0.25906691
   0.75676762  0.25761541 -0.00268694
   0.24384871  0.74904948 -0.00192353
   0.24647903  0.25099904  0.50321387
   0.24621536  0.74911179  0.50201348
   0.25372961  0.24896784  0.25150370
   0.25215706 -0.00017174 -0.00184248
   0.00000789  0.25346952  0.00092449
   0.75005580  0.25295964  0.25118118
   0.74694795  0.00254902  0.00139206
   0.50639502  0.00090083  0.25050516
  -0.01152053  0.50241120  0.24565140
   0.49826640  0.75532243  0.00260741
  -0.00218436  0.00009621  0.74088789
   0.75364052  0.25237524  0.74951219
   0.75477940 -0.00464993  0.50127105
   0.50045011  0.25269342  0.49709198
   0.50169353 -0.00010740  0.74900751
  -0.00323441 -0.00618132  0.26151973
   0.50157466  0.24254244  0.00231891
   0.24863530  0.75072898  0.25003464
   0.24196630  0.49943018 -0.00377716
  -0.00365269  0.74385339  0.00404753
   0.75500745  0.74022440  0.25382760
   0.75648758  0.50419563  0.00098617
   0.51398919  0.50320686  0.26175812
   0.24380366  0.24899227  0.74950825
   0.24539338  0.00004032  0.50449677
  -0.00624319  0.23910667  0.50180199
   0.24354395  0.75112660  0.74924061
   0.25766612  0.49973001  0.50520484
  -0.01055824  0.76259449  0.49799548
  -0.00725583  0.49940965  0.75411872
   0.75587046  0.74484094  0.74498959
   0.73864655  0.50308459  0.49920580
   0.50883062  0.74457675  0.49560953
   0.50704195  0.49989530  0.73744373
   0.50731267  0.00532400 -0.00225683
  -0.00498537  0.50666819 -0.00368544
   0.50901104  0.74336693  0.25681227
   0.24224455 -0.00079372  0.74320298
   0.49666446 -0.01103253  0.50091377
   0.75766649 -0.00936799  0.74156363
  -0.00655354  0.76327313  0.25224609
   0.74451513  0.51219492  0.25223007
   0.00305668  0.00129800  0.49501949
   0.50445991  0.51024751  0.49951781
   0.74481217  0.51178006  0.74762255
   0.75267285  0.73917681  0.49807679
HECN                                    
           1
     8.961751   -0.018240    0.012403
    -0.018315    8.981297   -0.009944
     0.012406   -0.009884    8.948559
   Zr   Mo   Hf   N    C    Nb   V 
   7   6   7  13  19   6   6
Direct configuration=    10
  -0.00828305 -0.00490172 -0.00079099
   0.24819781 -0.00067877  0.25457760
   0.24750999  0.50185724  0.25137818
   0.50173780  0.50236080 -0.00090422
   0.49940138  0.25029384  0.74334576
  -0.00922633  0.50203213  0.49768163
   0.50685904  0.75044015  0.74618634
  -0.01015262  0.22753761  0.26585863
   0.76628255  0.73429001  0.00244028
   0.00951591  0.26962727  0.73744651
   0.76091406  0.26336441  0.50225089
  -0.01059902  0.73464690  0.75031085
   0.25588838  0.49679939  0.74842490
   0.24322095  0.25067958 -0.00187234
   0.50959729  0.25588577  0.25721221
   0.75032600 -0.00651067  0.26194574
   0.75784281  0.25949449 -0.00395157
   0.24264417  0.74939083 -0.00106042
   0.24586272  0.25152990  0.50186885
   0.24461092  0.74890587  0.50103099
   0.25320507  0.24887701  0.25243475
   0.25262194 -0.00031962 -0.00155041
  -0.00027849  0.25222598  0.00249312
   0.75263249  0.25223125  0.25226877
   0.74627669  0.00254618  0.00203313
   0.50650793  0.00105142  0.25036813
  -0.01309615  0.50025675  0.24656118
   0.49845934  0.75723910  0.00261532
  -0.00229717  0.00050214  0.73977530
   0.75563430  0.25187465  0.74877315
   0.75481026 -0.00557106  0.50258725
   0.50123167  0.25116290  0.49746072
   0.50195780 -0.00000096  0.74922123
  -0.00236570 -0.00990573  0.26122236
   0.50253447  0.24275807  0.00137759
   0.24784127  0.75023947  0.25060488
   0.24423851  0.49922963 -0.00284952
  -0.00176437  0.74614002  0.00547336
   0.75731150  0.73999005  0.25392883
   0.75348137  0.50341391  0.00077251
   0.51340024  0.50283304  0.26030393
   0.24571100  0.24881145  0.74967589
   0.24483391 -0.00066820  0.50309297
  -0.00510114  0.24046987  0.50351259
   0.24369397  0.75121393  0.74907378
   0.25579164  0.50026065  0.50450329
  -0.01207679  0.76198118  0.49773679
  -0.00928814  0.49789932  0.75037277
   0.75417083  0.74314172  0.74412048
   0.73948592  0.50342719  0.49943869
   0.50793097  0.74319428  0.49707023
   0.50887731  0.50016200  0.73808775
   0.50981166  0.00736156 -0.00377079
  -0.00351337  0.50760948 -0.00266188
   0.51091667  0.74275646  0.25634588
   0.23829649 -0.00145725  0.74327323
   0.49473284 -0.01465319  0.50185473
   0.76016312 -0.01317232  0.73730221
  -0.00853000  0.77016102  0.25449587
   0.74321870  0.51745942  0.25331837
   0.00546267  0.00011935  0.49356557
   0.50556248  0.51663861  0.49885801
   0.74124476  0.51900218  0.74514482
   0.75411145  0.73446273  0.49633404
HECN                                    
           1
     8.960378   -0.019384    0.012904
    -0.019463    8.979020   -0.010580
     0.012907   -0.010518    8.946660
   Zr   Mo   Hf   N    C    Nb   V 
   7   6   7  13  19   6   6
Direct configuration=    11
  -0.00849157 -0.00496710 -0.00082944
   0.24844678 -0.00071314  0.25456364
   0.24751738  0.50190492  0.25136093
   0.50154232  0.50235279 -0.00090642
   0.49929644  0.25018403  0.74330094
  -0.00931700  0.50205576  0.49759423
   0.50691252  0.75060960  0.74624459
  -0.01041064  0.22701654  0.26625203
   0.76643323  0.73406804  0.00256125
   0.00971273  0.27022869  0.73726601
   0.76097316  0.26361710  0.50221202
  -0.01085149  0.73426961  0.75040940
   0.25606356  0.49664466  0.74834440
   0.24327863  0.25070273 -0.00177900
   0.50981761  0.25594198  0.25729499
   0.75006078 -0.00658427  0.26216491
   0.75792486  0.25963758 -0.00404771
   0.24255259  0.74941672 -0.00099466
   0.24581601  0.25157014  0.50176658
   0.24448897  0.74888991  0.50095631
   0.25316513  0.24887009  0.25250561
   0.25265725 -0.00033079 -0.00152823
  -0.00030051  0.25213139  0.00261240
   0.75282823  0.25217621  0.25235132
   0.74622562  0.00254592  0.00208195
   0.50651654  0.00106289  0.25035771
  -0.01321626  0.50009260  0.24663034
   0.49847425  0.75738504  0.00261605
  -0.00230564  0.00053295  0.73969069
   0.75578586  0.25183674  0.74871677
   0.75481242 -0.00564108  0.50268733
   0.50129088  0.25104651  0.49748862
   0.50197789  0.00000720  0.74923748
  -0.00230012 -0.01018917  0.26119942
   0.50260752  0.24277455  0.00130593
   0.24778081  0.75020214  0.25064828
   0.24441118  0.49921472 -0.00277908
  -0.00162059  0.74631444  0.00558190
   0.75748663  0.73997251  0.25393638
   0.75325273  0.50335400  0.00075637
   0.51335550  0.50280440  0.26019329
   0.24585598  0.24879794  0.74968852
   0.24479136 -0.00072231  0.50298615
  -0.00501423  0.24057391  0.50364278
   0.24370540  0.75122059  0.74906108
   0.25564924  0.50030076  0.50445006
  -0.01219231  0.76193428  0.49771715
  -0.00944264  0.49778382  0.75008776
   0.75404144  0.74301208  0.74405433
   0.73954976  0.50345339  0.49945639
   0.50786231  0.74308902  0.49718132
   0.50901685  0.50018259  0.73813667
   0.51000200  0.00751689 -0.00388598
  -0.00340139  0.50768140 -0.00258402
   0.51106150  0.74271020  0.25631025
   0.23799624 -0.00150826  0.74327875
   0.49458547 -0.01492900  0.50192617
   0.76035268 -0.01346192  0.73697757
  -0.00867951  0.77068528  0.25466764
   0.74312075  0.51786010  0.25340163
   0.00564552  0.00002982  0.49345473
   0.50564716  0.51712524  0.49880820
   0.74097461  0.51955135  0.74495702
   0.75422031  0.73410392  0.49620103
HECN                                    
           1
     8.938727   -0.023321    0.013348
    -0.023245    9.030814   -0.014417
     0.013343   -0.014429    8.927363
   Zr   Mo   Hf   N    C    Nb   V 
   7   6   7  13  19   6   6
Direct configuration=    12
  -0.00893834 -0.00356511 -0.00137545
   0.25158740 -0.00155018  0.25285536
   0.24784915  0.50210844  0.25176561