    2    2  100    1
  0.4915241E+02  0.4448472E-09  0.4448472E-09  0.4967675E-09  0.5000000E-15
  1.000000000000000E-004
  CAR 
 N                                       
     10      1     28
 
  0.0000000E+00  0.0000000E+00  0.0000000E+00  0.1000000E+01
      1        -26.620346   1.000000
      2        -12.039420   1.000000
      3         -9.948033   1.000000
      4         -9.948033   1.000000
      5         -8.835070   1.000000
      6         -0.446982   0.000000
      7         -0.446982   0.000000
      8          0.657889   0.000000
      9          4.871826   0.000000
     10          5.541064   0.000000
     11          6.462789   0.000000
     12          7.349151   0.000000
     13          7.349151   0.000000
     14         10.196266   0.000000
     15         11.295434   0.000000
     16         11.786409   0.000000
     17         12.136891   0.000000
     18         12.261397   0.000000
     19         12.261397   0.000000
     20         13.054869   0.000000
     21         13.709445   0.000000
     22         13.709445   0.000000
     23         14.402624   0.000000
     24         15.757208   0.000000
     25         15.757208   0.000000
     26         17.017120   0.000000
     27         17.953546   0.000000
     28         18.649736   0.000000
