 running   28 mpi-ranks, on    1 nodes
 distrk:  each k-point on   28 cores,    1 groups
 distr:  one band on    1 cores,   28 groups
 vasp.6.4.3 19Mar24 (build Sep 18 2024 11:30:23) complex                        
  
 POSCAR found type information on POSCAR N 
 POSCAR found :  1 types and       2 ions
 Reading from existing POTCAR
 scaLAPACK will be used
 -----------------------------------------------------------------------------
|                                                                             |
|           W    W    AA    RRRRR   N    N  II  N    N   GGGG   !!!           |
|           W    W   A  A   R    R  NN   N  II  NN   N  G    G  !!!           |
|           W    W  A    A  R    R  N N  N  II  N N  N  G       !!!           |
|           W WW W  AAAAAA  RRRRR   N  N N  II  N  N N  G  GGG   !            |
|           WW  WW  A    A  R   R   N   NN  II  N   NN  G    G                |
|           W    W  A    A  R    R  N    N  II  N    N   GGGG   !!!           |
|                                                                             |
|     For optimal performance we recommend to set                             |
|       NCORE = 2 up to number-of-cores-per-socket                            |
|     NCORE specifies how many cores store one orbital (NPAR=cpu/NCORE).      |
|     This setting can greatly improve the performance of VASP for DFT.       |
|     The default, NCORE=1 might be grossly inefficient on modern             |
|     multi-core architectures or massively parallel machines. Do your        |
|     own testing! More info at https://www.vasp.at/wiki/index.php/NCORE      |
|     Unfortunately you need to use the default for GW and RPA                |
|     calculations (for HF NCORE is supported but not extensively tested      |
|     yet).                                                                   |
|                                                                             |
 -----------------------------------------------------------------------------

 Reading from existing POTCAR
 LDA part: xc-table for (Slater+PW92), standard interpolation
 POSCAR, INCAR and KPOINTS ok, starting setup
 FFT: planning ... GRIDC
 FFT: planning ... GRID_SOFT
 FFT: planning ... GRID
 WAVECAR not read
 entering main loop
       N       E                     dE             d eps       ncg     rms          rms(c)
DAV:   1     0.181476343837E+02    0.18148E+02   -0.46720E+03    56   0.205E+02
DAV:   2    -0.172549169096E+02   -0.35403E+02   -0.35403E+02    84   0.530E+01
DAV:   3    -0.174424802188E+02   -0.18756E+00   -0.18756E+00    56   0.553E+00
DAV:   4    -0.174428699582E+02   -0.38974E-03   -0.38974E-03    84   0.267E-01
DAV:   5    -0.174428699935E+02   -0.35277E-07   -0.35277E-07    56   0.252E-03    0.583E+00
DAV:   6    -0.168272159142E+02    0.61565E+00   -0.94230E-01    56   0.242E+00    0.291E+00
DAV:   7    -0.166798683136E+02    0.14735E+00   -0.49626E-01    56   0.180E+00    0.753E-01
DAV:   8    -0.166737922107E+02    0.60761E-02   -0.19385E-02    56   0.357E-01    0.938E-02
DAV:   9    -0.166735342718E+02    0.25794E-03   -0.19664E-03    56   0.103E-01    0.445E-02
DAV:  10    -0.166735480110E+02   -0.13739E-04   -0.81645E-05    56   0.320E-02    0.977E-03
DAV:  11    -0.166735439088E+02    0.41022E-05   -0.19304E-05    56   0.116E-02    0.523E-03
DAV:  12    -0.166735426286E+02    0.12802E-05   -0.26626E-06    56   0.540E-03    0.133E-03
DAV:  13    -0.166735426144E+02    0.14182E-07   -0.91909E-08   112   0.990E-04
   1 F= -.16673543E+02 E0= -.16673543E+02  d E =-.166735E+02
 curvature:   0.00 expect dE= 0.000E+00 dE for cont linesearch  0.000E+00
 trial: gam= 0.00000 g(F)=  0.168E-03 g(S)=  0.000E+00 ort = 0.000E+00 (trialstep = 0.100E+01)
 search vector abs. value=  0.168E-03
 bond charge predicted
       N       E                     dE             d eps       ncg     rms          rms(c)
DAV:   1    -0.166726443332E+02    0.89830E-03   -0.44427E-02    56   0.676E-01    0.788E-02
DAV:   2    -0.166725061726E+02    0.13816E-03   -0.36027E-04    84   0.575E-02    0.350E-02
DAV:   3    -0.166724817977E+02    0.24375E-04   -0.11659E-04    56   0.283E-02    0.813E-03
DAV:   4    -0.166724813800E+02    0.41775E-06   -0.22898E-06    56   0.454E-03
   2 F= -.16672481E+02 E0= -.16672481E+02  d E =0.106123E-02
 trial-energy change:    0.001061  1 .order    0.001069   -0.000168    0.002305
 step:   0.0691(harm=  0.0680)  dis= 0.00014  next Energy=   -16.673548 (dE=-0.581E-05)
 bond charge predicted
       N       E                     dE             d eps       ncg     rms          rms(c)
DAV:   1    -0.166736949969E+02   -0.12132E-02   -0.38525E-02    56   0.629E-01    0.738E-02
DAV:   2    -0.166735715182E+02    0.12348E-03   -0.31051E-04    84   0.530E-02    0.325E-02
DAV:   3    -0.166735493066E+02    0.22212E-04   -0.99709E-05    56   0.263E-02    0.764E-03
DAV:   4    -0.166735488406E+02    0.46596E-06   -0.17858E-06    56   0.424E-03
   3 F= -.16673549E+02 E0= -.16673549E+02  d E =-.622622E-05
 curvature:  -0.03 expect dE=-0.582E-09 dE for cont linesearch -0.582E-09
 trial: gam= 0.00000 g(F)=  0.171E-07 g(S)=  0.000E+00 ort =-0.170E-05 (trialstep = 0.814E+00)
 search vector abs. value=  0.172E-07
 reached required accuracy - stopping structural energy minimisation
