N                                       
           1
     4.448472    0.000000    0.000000
     0.000000    4.448472    0.000000
     0.000000    0.000000    4.967675
   N 
     2
Direct configuration=     1
   0.50000000  0.50000000  0.11243176
   0.50000000  0.50000000  0.88756824
Direct configuration=     2
   0.50000000  0.50000000  0.11202642
   0.50000000  0.50000000  0.88797358
Direct configuration=     3
   0.50000000  0.50000000  0.11240375
   0.50000000  0.50000000  0.88759625
