  64  64   0   0
  0.1085517E+02  0.8862566E-09  0.8870585E-09  0.8837049E-09  0.5000000E-15
  1.000000000000000E-004
  CAR 
 HECN                                    
     14.71984461    -59.71766757  301      8.74203686      1.00000000
    -59.718  0.0000E+00  0.0000E+00
    -59.470  0.0000E+00  0.0000E+00
    -59.221  0.0000E+00  0.0000E+00
    -58.973  0.0000E+00  0.0000E+00
    -58.725  0.0000E+00  0.0000E+00
    -58.477  0.0000E+00  0.0000E+00
    -58.229  0.0000E+00  0.0000E+00
    -57.981  0.0000E+00  0.0000E+00
    -57.733  0.0000E+00  0.0000E+00
    -57.485  0.0000E+00  0.0000E+00
    -57.236  0.0000E+00  0.0000E+00
    -56.988  0.0000E+00  0.0000E+00
    -56.740  0.3764E-09  0.9340E-10
    -56.492  0.1031E-02  0.2559E-03
    -56.244  0.1055E+00  0.2644E-01
    -55.996  0.3454E+00  0.1121E+00
    -55.748  0.3167E-01  0.1200E+00
    -55.500  0.9840E-06  0.1200E+00
    -55.251  0.3938E-15  0.1200E+00
    -55.003  0.0000E+00  0.1200E+00
    -54.755  0.0000E+00  0.1200E+00
    -54.507  0.0000E+00  0.1200E+00
    -54.259  0.0000E+00  0.1200E+00
    -54.011  0.0000E+00  0.1200E+00
    -53.763  0.0000E+00  0.1200E+00
    -53.515  0.0000E+00  0.1200E+00
    -53.266  0.0000E+00  0.1200E+00
    -53.018  0.0000E+00  0.1200E+00
    -52.770  0.0000E+00  0.1200E+00
    -52.522  0.0000E+00  0.1200E+00
    -52.274  0.0000E+00  0.1200E+00
    -52.026  0.0000E+00  0.1200E+00
    -51.778  0.0000E+00  0.1200E+00
    -51.530  0.0000E+00  0.1200E+00
    -51.281  0.0000E+00  0.1200E+00
    -51.033  0.0000E+00  0.1200E+00
    -50.785  0.0000E+00  0.1200E+00
    -50.537  0.0000E+00  0.1200E+00
    -50.289  0.0000E+00  0.1200E+00
    -50.041  0.0000E+00  0.1200E+00
    -49.793  0.0000E+00  0.1200E+00
    -49.545  0.0000E+00  0.1200E+00
    -49.296  0.3830E-07  0.1200E+00
    -49.048  0.7090E-02  0.1218E+00
    -48.800  0.1884E+00  0.1685E+00
    -48.552  0.2502E+00  0.2306E+00
    -48.304  0.1141E+00  0.2589E+00
    -48.056  0.4392E-02  0.2600E+00
    -47.808  0.1408E-07  0.2600E+00
    -47.560  0.1872E-02  0.2605E+00
    -47.311  0.1326E+00  0.2934E+00
    -47.063  0.6827E-01  0.3103E+00
    -46.815  0.1785E+00  0.3546E+00
    -46.567  0.1010E+00  0.3797E+00
    -46.319  0.1407E-02  0.3800E+00
    -46.071  0.7720E-09  0.3800E+00
    -45.823  0.0000E+00  0.3800E+00
    -45.575  0.0000E+00  0.3800E+00
    -45.326  0.0000E+00  0.3800E+00
    -45.078  0.0000E+00  0.3800E+00
    -44.830  0.0000E+00  0.3800E+00
    -44.582  0.0000E+00  0.3800E+00
    -44.334  0.0000E+00  0.3800E+00
    -44.086  0.0000E+00  0.3800E+00
    -43.838  0.0000E+00  0.3800E+00
    -43.590  0.0000E+00  0.3800E+00
    -43.341  0.0000E+00  0.3800E+00
    -43.093  0.0000E+00  0.3800E+00
    -42.845  0.0000E+00  0.3800E+00
    -42.597  0.0000E+00  0.3800E+00
    -42.349  0.0000E+00  0.3800E+00
    -42.101  0.0000E+00  0.3800E+00
    -41.853  0.0000E+00  0.3800E+00
    -41.605  0.0000E+00  0.3800E+00
    -41.356  0.0000E+00  0.3800E+00
    -41.108  0.4474E-17  0.3800E+00
    -40.860  0.6783E-07  0.3800E+00
    -40.612  0.8097E-02  0.3820E+00
    -40.364  0.9672E-01  0.4060E+00
    -40.116  0.1346E+00  0.4394E+00
    -39.868  0.2189E+00  0.4937E+00
    -39.620  0.8279E-01  0.5142E+00
    -39.371  0.2320E-01  0.5200E+00
    -39.123  0.1906E-05  0.5200E+00
    -38.875  0.1414E-14  0.5200E+00
    -38.627  0.0000E+00  0.5200E+00
    -38.379  0.0000E+00  0.5200E+00
    -38.131  0.0000E+00  0.5200E+00
    -37.883  0.0000E+00  0.5200E+00
    -37.635  0.0000E+00  0.5200E+00
    -37.386  0.0000E+00  0.5200E+00
    -37.138  0.0000E+00  0.5200E+00
    -36.890  0.0000E+00  0.5200E+00
    -36.642  0.0000E+00  0.5200E+00
    -36.394  0.0000E+00  0.5200E+00
    -36.146  0.0000E+00  0.5200E+00
    -35.898  0.0000E+00  0.5200E+00
    -35.650  0.0000E+00  0.5200E+00
    -35.401  0.0000E+00  0.5200E+00
    -35.153  0.0000E+00  0.5200E+00
    -34.905  0.0000E+00  0.5200E+00
    -34.657  0.0000E+00  0.5200E+00
    -34.409  0.0000E+00  0.5200E+00
    -34.161  0.0000E+00  0.5200E+00
    -33.913  0.0000E+00  0.5200E+00
    -33.665  0.0000E+00  0.5200E+00
    -33.416  0.0000E+00  0.5200E+00
    -33.168  0.0000E+00  0.5200E+00
    -32.920  0.0000E+00  0.5200E+00
    -32.672  0.0000E+00  0.5200E+00
    -32.424  0.0000E+00  0.5200E+00
    -32.176  0.0000E+00  0.5200E+00
    -31.928  0.0000E+00  0.5200E+00
    -31.680  0.0000E+00  0.5200E+00
    -31.431  0.0000E+00  0.5200E+00
    -31.183  0.0000E+00  0.5200E+00
    -30.935  0.0000E+00  0.5200E+00
    -30.687  0.2107E-07  0.5200E+00
    -30.439  0.8300E-02  0.5221E+00
    -30.191  0.3810E+00  0.6166E+00
    -29.943  0.9427E+00  0.8505E+00
    -29.695  0.1188E+00  0.8800E+00
    -29.446  0.6013E-05  0.8800E+00
    -29.198  0.3605E-14  0.8800E+00
    -28.950  0.0000E+00  0.8800E+00
    -28.702  0.0000E+00  0.8800E+00
    -28.454  0.0000E+00  0.8800E+00
    -28.206  0.0000E+00  0.8800E+00
    -27.958  0.0000E+00  0.8800E+00
    -27.710  0.0000E+00  0.8800E+00
    -27.461  0.0000E+00  0.8800E+00
    -27.213  0.0000E+00  0.8800E+00
    -26.965  0.0000E+00  0.8800E+00
    -26.717  0.0000E+00  0.8800E+00
    -26.469  0.0000E+00  0.8800E+00
    -26.221  0.0000E+00  0.8800E+00
    -25.973  0.0000E+00  0.8800E+00
    -25.725  0.2174E-07  0.8800E+00
    -25.476  0.8081E-02  0.8820E+00
    -25.228  0.4330E+00  0.9894E+00
    -24.980  0.7514E+00  0.1176E+01
    -24.732  0.4504E+00  0.1288E+01
    -24.484  0.4985E-01  0.1300E+01
    -24.236  0.3176E-05  0.1300E+01
    -23.988  0.3724E-05  0.1300E+01
    -23.740  0.3037E-01  0.1308E+01
    -23.491  0.3075E+00  0.1384E+01
    -23.243  0.2820E+00  0.1454E+01
    -22.995  0.4939E+00  0.1576E+01
    -22.747  0.3062E+00  0.1652E+01
    -22.499  0.3099E-01  0.1660E+01
    -22.251  0.2076E-05  0.1660E+01
    -22.003  0.1621E-14  0.1660E+01
    -21.755  0.0000E+00  0.1660E+01
    -21.506  0.0000E+00  0.1660E+01
    -21.258  0.0000E+00  0.1660E+01
    -21.010  0.0000E+00  0.1660E+01
    -20.762  0.0000E+00  0.1660E+01
    -20.514  0.0000E+00  0.1660E+01
    -20.266  0.0000E+00  0.1660E+01
    -20.018  0.0000E+00  0.1660E+01
    -19.770  0.0000E+00  0.1660E+01
    -19.521  0.9332E-15  0.1660E+01
    -19.273  0.1551E-05  0.1660E+01
    -19.025  0.3147E-01  0.1668E+01
    -18.777  0.2588E+00  0.1732E+01
    -18.529  0.3487E+00  0.1819E+01
    -18.281  0.4492E+00  0.1930E+01
    -18.033  0.3995E+00  0.2029E+01
    -17.785  0.1916E+00  0.2077E+01
    -17.536  0.1338E-01  0.2080E+01
    -17.288  0.1603E-06  0.2080E+01
    -17.040  0.0000E+00  0.2080E+01
    -16.792  0.0000E+00  0.2080E+01
    -16.544  0.0000E+00  0.2080E+01
    -16.296  0.0000E+00  0.2080E+01
    -16.048  0.0000E+00  0.2080E+01
    -15.800  0.0000E+00  0.2080E+01
    -15.551  0.0000E+00  0.2080E+01
    -15.303  0.0000E+00  0.2080E+01
    -15.055  0.0000E+00  0.2080E+01
    -14.807  0.0000E+00  0.2080E+01
    -14.559  0.0000E+00  0.2080E+01
    -14.311  0.0000E+00  0.2080E+01
    -14.063  0.0000E+00  0.2080E+01
    -13.815  0.0000E+00  0.2080E+01
    -13.566  0.0000E+00  0.2080E+01
    -13.318  0.0000E+00  0.2080E+01
    -13.070  0.0000E+00  0.2080E+01
    -12.822  0.0000E+00  0.2080E+01
    -12.574  0.0000E+00  0.2080E+01
    -12.326  0.0000E+00  0.2080E+01
    -12.078  0.0000E+00  0.2080E+01
    -11.830  0.0000E+00  0.2080E+01
    -11.581  0.0000E+00  0.2080E+01
    -11.333  0.0000E+00  0.2080E+01
    -11.085  0.0000E+00  0.2080E+01
    -10.837  0.0000E+00  0.2080E+01
    -10.589  0.0000E+00  0.2080E+01
    -10.341  0.0000E+00  0.2080E+01
    -10.093  0.0000E+00  0.2080E+01
     -9.845  0.0000E+00  0.2080E+01
     -9.596  0.0000E+00  0.2080E+01
     -9.348  0.0000E+00  0.2080E+01
     -9.100  0.0000E+00  0.2080E+01
     -8.852  0.0000E+00  0.2080E+01
     -8.604  0.0000E+00  0.2080E+01
     -8.356  0.0000E+00  0.2080E+01
     -8.108  0.0000E+00  0.2080E+01
     -7.860  0.6647E-14  0.2080E+01
     -7.611  0.1589E-05  0.2080E+01
     -7.363  0.1176E-01  0.2083E+01
     -7.115  0.6736E-01  0.2100E+01
     -6.867  0.4072E-02  0.2101E+01
     -6.619  0.6519E-01  0.2117E+01
     -6.371  0.1263E+00  0.2148E+01
     -6.123  0.2932E+00  0.2221E+01
     -5.875  0.2702E+00  0.2288E+01
     -5.626  0.1479E+00  0.2325E+01
     -5.378  0.5059E-01  0.2337E+01
     -5.130  0.1120E-01  0.2340E+01
     -4.882  0.1454E-04  0.2340E+01
     -4.634  0.4791E-12  0.2340E+01
     -4.386  0.2320E-17  0.2340E+01
     -4.138  0.1639E-07  0.2340E+01
     -3.890  0.1067E-02  0.2340E+01
     -3.641  0.3929E-01  0.2350E+01
     -3.393  0.6139E-01  0.2365E+01
     -3.145  0.1176E+00  0.2394E+01
     -2.897  0.1737E+00  0.2438E+01
     -2.649  0.1849E+00  0.2483E+01
     -2.401  0.2216E+00  0.2538E+01
     -2.153  0.2445E+00  0.2599E+01
     -1.905  0.2259E+00  0.2655E+01
     -1.656  0.1511E+00  0.2693E+01
     -1.408  0.9040E-01  0.2715E+01
     -1.160  0.1944E-01  0.2720E+01
     -0.912  0.7020E-03  0.2720E+01
     -0.664  0.3154E-07  0.2720E+01
     -0.416  0.1259E-16  0.2720E+01
     -0.168  0.0000E+00  0.2720E+01
      0.080  0.0000E+00  0.2720E+01
      0.329  0.0000E+00  0.2720E+01
      0.577  0.9575E-14  0.2720E+01
      0.825  0.1259E-05  0.2720E+01
      1.073  0.2920E-02  0.2721E+01
      1.321  0.2060E-01  0.2726E+01
      1.569  0.9625E-01  0.2750E+01
      1.817  0.1131E+00  0.2778E+01
      2.065  0.1300E+00  0.2810E+01
      2.314  0.2202E+00  0.2865E+01
      2.562  0.3355E+00  0.2948E+01
      2.810  0.2815E+00  0.3018E+01
      3.058  0.3330E+00  0.3100E+01
      3.306  0.3763E+00  0.3194E+01
      3.554  0.4217E+00  0.3298E+01
      3.802  0.5323E+00  0.3430E+01
      4.050  0.6288E+00  0.3587E+01
      4.299  0.6347E+00  0.3744E+01
      4.547  0.6779E+00  0.3912E+01
      4.795  0.6663E+00  0.4078E+01
      5.043  0.5684E+00  0.4219E+01
      5.291  0.4177E+00  0.4322E+01
      5.539  0.3693E+00  0.4414E+01
      5.787  0.2845E+00  0.4484E+01
      6.035  0.2372E+00  0.4543E+01
      6.284  0.1907E+00  0.4591E+01
      6.532  0.1501E+00  0.4628E+01
      6.780  0.5541E-01  0.4642E+01
      7.028  0.1159E+00  0.4670E+01
      7.276  0.1829E+00  0.4716E+01
      7.524  0.1816E+00  0.4761E+01
      7.772  0.1811E+00  0.4806E+01
      8.020  0.2041E+00  0.4856E+01
      8.269  0.1954E+00  0.4905E+01
      8.517  0.2106E+00  0.4957E+01
      8.765  0.2320E+00  0.5015E+01
      9.013  0.2780E+00  0.5084E+01
      9.261  0.3489E+00  0.5170E+01
      9.509  0.4460E+00  0.5281E+01
      9.757  0.5379E+00  0.5414E+01
     10.005  0.5570E+00  0.5553E+01
     10.254  0.5530E+00  0.5690E+01
     10.502  0.5550E+00  0.5827E+01
     10.750  0.5677E+00  0.5968E+01
     10.998  0.5790E+00  0.6112E+01
     11.246  0.4397E+00  0.6221E+01
     11.494  0.7612E-01  0.6240E+01
     11.742  0.2272E-03  0.6240E+01
     11.990  0.5372E-10  0.6240E+01
     12.239  0.0000E+00  0.6240E+01
     12.487  0.0000E+00  0.6240E+01
     12.735  0.0000E+00  0.6240E+01
     12.983  0.0000E+00  0.6240E+01
     13.231  0.0000E+00  0.6240E+01
     13.479  0.0000E+00  0.6240E+01
     13.727  0.0000E+00  0.6240E+01
     13.975  0.0000E+00  0.6240E+01
     14.224  0.0000E+00  0.6240E+01
     14.472  0.0000E+00  0.6240E+01
     14.720  0.0000E+00  0.6240E+01
