<?xml version="1.0" encoding="ISO-8859-1"?>
<modeling>
 <generator>
  <i name="program" type="string">vasp </i>
  <i name="version" type="string">5.4.4.18Apr17-6-g9f103f2a35  </i>
  <i name="subversion" type="string">(build Oct 18 2021 20:38:43) complex            parallel </i>
  <i name="platform" type="string">LinuxIFC </i>
  <i name="date" type="string">2024 06 22 </i>
  <i name="time" type="string">17:00:44 </i>
 </generator>
 <incar>
  <i type="string" name="SYSTEM">HECN</i>
  <i type="int" name="ISTART">     0</i>
  <i type="string" name="PREC">normal</i>
  <i type="string" name="ALGO">Fast</i>
  <i type="int" name="ICHARG">     2</i>
  <i type="int" name="NELM">    60</i>
  <i type="int" name="IBRION">     2</i>
  <i name="EDIFF">      0.00001000</i>
  <i name="EDIFFG">     -0.01000000</i>
  <i type="int" name="NSW">   100</i>
  <i type="int" name="ISIF">     3</i>
  <i name="ENCUT">    400.00000000</i>
  <i name="POTIM">      0.50000000</i>
  <i type="logical" name="LREAL"> F  </i>
  <i type="int" name="ISMEAR">     0</i>
  <i name="SIGMA">      0.10000000</i>
  <i type="logical" name="LWAVE"> F  </i>
  <i type="logical" name="LCHARG"> F  </i>
  <v type="int" name="KPOINT_BSE">    -1     0     0     0</v>
  <i type="int" name="NELM">    60</i>
 </incar>
 <structure name="primitive_cell" >
  <crystal>
   <varray name="basis" >
    <v>       8.86256204      -0.00742191      -0.00290143 </v>
    <v>      -0.00741934       8.87057405      -0.01197906 </v>
    <v>      -0.00290919      -0.01199621       8.83704042 </v>
   </varray>
   <i name="volume">    694.73104787 </i>
   <varray name="rec_basis" >
    <v>       0.11283428       0.00009442       0.00003727 </v>
    <v>       0.00009446       0.11273256       0.00015306 </v>
    <v>       0.00003717       0.00015285       0.11316028 </v>
   </varray>
  </crystal>
  <varray name="positions" >
   <v>      -0.00000181      -0.00064234       0.00983884 </v>
   <v>      -0.00182774      -0.00121867       0.24704658 </v>
   <v>       0.00550720      -0.24237298       0.00048691 </v>
   <v>      -0.00097590       0.24112384       0.00068443 </v>
   <v>      -0.24236629       0.00445625       0.00743876 </v>
   <v>       0.24291481       0.00143027       0.00950519 </v>
   <v>      -0.00071543       0.00130078      -0.24247626 </v>
   <v>      -0.00031966      -0.23617537       0.24741942 </v>
   <v>      -0.24038388      -0.00427327       0.24772086 </v>
   <v>       0.24200228       0.00320288       0.24884767 </v>
   <v>       0.00104348       0.24093056       0.25616769 </v>
   <v>      -0.24250863      -0.25540878       0.00156091 </v>
   <v>       0.23739505      -0.26014509       0.00175434 </v>
   <v>       0.24730409       0.00248670      -0.24564264 </v>
   <v>      -0.24772677      -0.00149368      -0.24917630 </v>
   <v>      -0.00169674      -0.25791247      -0.24902221 </v>
   <v>      -0.26170850       0.25740507       0.00783057 </v>
   <v>       0.26122682       0.26068568      -0.00509129 </v>
   <v>       0.00449397       0.25732101      -0.25653879 </v>
   <v>       0.24325778      -0.25034354       0.23787062 </v>
   <v>      -0.24475277      -0.24665227       0.25222006 </v>
   <v>      -0.25442474       0.24384538       0.24595130 </v>
   <v>       0.25258610       0.24933213       0.25033281 </v>
   <v>       0.25365604      -0.25421018      -0.23851430 </v>
   <v>      -0.25454831       0.25145913      -0.24770008 </v>
   <v>      -0.25529826      -0.25538527      -0.25053097 </v>
   <v>       0.25331319       0.25406436      -0.25087661 </v>
   <v>       0.00628451       0.00732390       0.48724403 </v>
   <v>       0.00025071       0.49710355       0.00448982 </v>
   <v>       0.49922962       0.00647042       0.00488684 </v>
   <v>       0.24416809       0.01106379       0.49024234 </v>
   <v>      -0.24722827       0.00255166       0.49200050 </v>
   <v>      -0.00700913      -0.25186388       0.49831271 </v>
   <v>       0.00536706       0.25463578       0.49966567 </v>
   <v>       0.49997417       0.00942575       0.24850246 </v>
   <v>       0.00598328       0.49596331       0.25825236 </v>
   <v>      -0.25805450       0.49290031       0.00064875 </v>
   <v>      -0.49819466       0.00166410      -0.24832599 </v>
   <v>       0.49884108      -0.25582857      -0.00811076 </v>
   <v>       0.25799464      -0.49936684       0.00510622 </v>
   <v>      -0.49971847       0.25916328       0.00298362 </v>
   <v>       0.00040247       0.49897248      -0.25792370 </v>
   <v>      -0.24376728       0.26036893       0.49288501 </v>
   <v>       0.24776271      -0.25291796       0.49821777 </v>
   <v>       0.23907472       0.25133885      -0.49484619 </v>
   <v>       0.25739610       0.49437809       0.24971119 </v>
   <v>      -0.49697909       0.25909619       0.24345350 </v>
   <v>      -0.24990755      -0.26339405       0.49867793 </v>
   <v>       0.49930791      -0.25622199       0.24704884 </v>
   <v>      -0.26400355      -0.49635361       0.24663260 </v>
   <v>      -0.25527150      -0.49403310      -0.24674448 </v>
   <v>       0.25553889       0.49673031      -0.24836096 </v>
   <v>       0.49761892       0.25891254      -0.24545418 </v>
   <v>      -0.49780466      -0.25953132      -0.24975053 </v>
   <v>       0.49673424       0.00453588       0.49526531 </v>
   <v>       0.00202165       0.49714132       0.49802212 </v>
   <v>      -0.49920428       0.49489993       0.00070046 </v>
   <v>       0.24882097       0.48682993       0.49492945 </v>
   <v>       0.49686731       0.48755415       0.24676039 </v>
   <v>      -0.24561422      -0.49933729       0.49872470 </v>
   <v>       0.49784196       0.25369402       0.49901190 </v>
   <v>      -0.49461081      -0.25649794      -0.49102308 </v>
   <v>      -0.49902199       0.49945243      -0.24738091 </v>
   <v>      -0.49653575      -0.49963383       0.49843746 </v>
  </varray>
 </structure>
 <varray name="primitive_index" >
  <v type="int" >        1 </v>
  <v type="int" >       33 </v>
  <v type="int" >       37 </v>
  <v type="int" >       22 </v>
  <v type="int" >       24 </v>
  <v type="int" >       21 </v>
  <v type="int" >       28 </v>
  <v type="int" >       59 </v>
  <v type="int" >       16 </v>
  <v type="int" >        2 </v>
  <v type="int" >        8 </v>
  <v type="int" >        9 </v>
  <v type="int" >       18 </v>
  <v type="int" >       55 </v>
  <v type="int" >       57 </v>
  <v type="int" >       12 </v>
  <v type="int" >       17 </v>
  <v type="int" >       14 </v>
  <v type="int" >       10 </v>
  <v type="int" >       35 </v>
  <v type="int" >       38 </v>
  <v type="int" >       23 </v>
  <v type="int" >       20 </v>
  <v type="int" >       44 </v>
  <v type="int" >       29 </v>
  <v type="int" >       48 </v>
  <v type="int" >       41 </v>
  <v type="int" >       61 </v>
  <v type="int" >       53 </v>
  <v type="int" >       52 </v>
  <v type="int" >       42 </v>
  <v type="int" >       30 </v>
  <v type="int" >       46 </v>
  <v type="int" >       43 </v>
  <v type="int" >       25 </v>
  <v type="int" >       26 </v>
  <v type="int" >       39 </v>
  <v type="int" >       32 </v>
  <v type="int" >       27 </v>
  <v type="int" >       36 </v>
  <v type="int" >       34 </v>
  <v type="int" >       47 </v>
  <v type="int" >       11 </v>
  <v type="int" >       58 </v>
  <v type="int" >       19 </v>
  <v type="int" >        3 </v>
  <v type="int" >       15 </v>
  <v type="int" >       64 </v>
  <v type="int" >       54 </v>
  <v type="int" >       60 </v>
  <v type="int" >       63 </v>
  <v type="int" >       13 </v>
  <v type="int" >        5 </v>
  <v type="int" >        7 </v>
  <v type="int" >       56 </v>
  <v type="int" >        6 </v>
  <v type="int" >        4 </v>
  <v type="int" >       45 </v>
  <v type="int" >       40 </v>
  <v type="int" >       49 </v>
  <v type="int" >       31 </v>
  <v type="int" >       50 </v>
  <v type="int" >       51 </v>
  <v type="int" >       62 </v>
 </varray>
 <kpoints>
  <generation param="Gamma">
   <v type="int" name="divisions">       3        3        3 </v>
   <v name="usershift">      0.00000000       0.00000000       0.00000000 </v>
   <v name="genvec1">      0.33333333       0.00000000       0.00000000 </v>
   <v name="genvec2">     -0.00000000       0.33333333       0.00000000 </v>
   <v name="genvec3">      0.00000000      -0.00000000       0.33333333 </v>
   <v name="shift">      0.00000000       0.00000000       0.00000000 </v>
  </generation>
  <varray name="kpointlist" >
   <v>       0.00000000       0.00000000       0.00000000 </v>
   <v>       0.33333333      -0.00000000       0.00000000 </v>
   <v>      -0.00000000       0.33333333       0.00000000 </v>
   <v>       0.33333333       0.33333333      -0.00000000 </v>
   <v>      -0.33333333       0.33333333       0.00000000 </v>
   <v>       0.00000000      -0.00000000       0.33333333 </v>
   <v>       0.33333333      -0.00000000       0.33333333 </v>
   <v>      -0.33333333       0.00000000       0.33333333 </v>
   <v>      -0.00000000       0.33333333       0.33333333 </v>
   <v>       0.33333333       0.33333333       0.33333333 </v>
   <v>      -0.33333333       0.33333333       0.33333333 </v>
   <v>       0.00000000      -0.33333333       0.33333333 </v>
   <v>       0.33333333      -0.33333333       0.33333333 </v>
   <v>      -0.33333333      -0.33333333       0.33333333 </v>
  </varray>
  <varray name="weights" >
   <v>       0.03703704 </v>
   <v>       0.07407407 </v>
   <v>       0.07407407 </v>
   <v>       0.07407407 </v>
   <v>       0.07407407 </v>
   <v>       0.07407407 </v>
   <v>       0.07407407 </v>
   <v>       0.07407407 </v>
   <v>       0.07407407 </v>
   <v>       0.07407407 </v>
   <v>       0.07407407 </v>
   <v>       0.07407407 </v>
   <v>       0.07407407 </v>
   <v>       0.07407407 </v>
  </varray>
 </kpoints>
 <parameters>
  <separator name="general" >
   <i type="string" name="SYSTEM">HECN</i>
   <i type="logical" name="LCOMPAT"> F  </i>
  </separator>
  <separator name="electronic" >
   <i type="string" name="PREC">normal</i>
   <i name="ENMAX">    400.00000000</i>
   <i name="ENAUG">    644.87300000</i>
   <i name="EDIFF">      0.00001000</i>
   <i type="int" name="IALGO">    68</i>
   <i type="int" name="IWAVPR">    11</i>
   <i type="int" name="NBANDS">   312</i>
   <i name="NELECT">    501.00000000</i>
   <i type="int" name="TURBO">     0</i>
   <i type="int" name="IRESTART">     0</i>
   <i type="int" name="NREBOOT">     0</i>
   <i type="int" name="NMIN">     0</i>
   <i name="EREF">      0.00000000</i>
   <separator name="electronic smearing" >
    <i type="int" name="ISMEAR">     0</i>
    <i name="SIGMA">      0.10000000</i>
    <i name="KSPACING">      0.50000000</i>
    <i type="logical" name="KGAMMA"> T  </i>
   </separator>
   <separator name="electronic projectors" >
    <i type="logical" name="LREAL"> F  </i>
    <v name="ROPT">      0.00000000      0.00000000      0.00000000      0.00000000      0.00000000      0.00000000      0.00000000</v>
    <i type="int" name="LMAXPAW">  -100</i>
    <i type="int" name="LMAXMIX">     2</i>
    <i type="logical" name="NLSPLINE"> F  </i>
   </separator>
   <separator name="electronic startup" >
    <i type="int" name="ISTART">     0</i>
    <i type="int" name="ICHARG">     2</i>
    <i type="int" name="INIWAV">     1</i>
   </separator>
   <separator name="electronic spin" >
    <i type="int" name="ISPIN">     1</i>
    <i type="logical" name="LNONCOLLINEAR"> F  </i>
    <v name="MAGMOM">      1.00000000      1.00000000      1.00000000      1.00000000      1.00000000      1.00000000      1.00000000      1.00000000      1.00000000      1.00000000      1.00000000      1.00000000      1.00000000      1.00000000      1.00000000      1.00000000      1.00000000      1.00000000      1.00000000      1.00000000
      1.00000000      1.00000000      1.00000000      1.00000000      1.00000000      1.00000000      1.00000000      1.00000000      1.00000000      1.00000000      1.00000000      1.00000000      1.00000000      1.00000000      1.00000000      1.00000000      1.00000000      1.00000000      1.00000000      1.00000000
      1.00000000      1.00000000      1.00000000      1.00000000      1.00000000      1.00000000      1.00000000      1.00000000      1.00000000      1.00000000      1.00000000      1.00000000      1.00000000      1.00000000      1.00000000      1.00000000      1.00000000      1.00000000      1.00000000      1.00000000
      1.00000000      1.00000000      1.00000000      1.00000000</v>
    <i name="NUPDOWN">     -1.00000000</i>
    <i type="logical" name="LSORBIT"> F  </i>
    <v name="SAXIS">      0.00000000      0.00000000      1.00000000</v>
    <i type="logical" name="LSPIRAL"> F  </i>
    <v name="QSPIRAL">      0.00000000      0.00000000      0.00000000</v>
    <i type="logical" name="LZEROZ"> F  </i>
   </separator>
   <separator name="electronic exchange-correlation" >
    <i type="logical" name="LASPH"> F  </i>
    <i type="logical" name="LMETAGGA"> F  </i>
   </separator>
   <separator name="electronic convergence" >
    <i type="int" name="NELM">    60</i>
    <i type="int" name="NELMDL">    -5</i>
    <i type="int" name="NELMIN">     2</i>
    <i name="ENINI">    400.00000000</i>
    <separator name="electronic convergence detail" >
     <i type="logical" name="LDIAG"> T  </i>
     <i type="logical" name="LSUBROT"> F  </i>
     <i name="WEIMIN">      0.00100000</i>
     <i name="EBREAK">      0.00000001</i>
     <i name="DEPER">      0.30000000</i>
     <i type="int" name="NRMM">     4</i>
     <i name="TIME">      0.40000000</i>
    </separator>
   </separator>
   <separator name="electronic mixer" >
    <i name="AMIX">      0.40000000</i>
    <i name="BMIX">      1.00000000</i>
    <i name="AMIN">      0.10000000</i>
    <i name="AMIX_MAG">      1.60000000</i>
    <i name="BMIX_MAG">      1.00000000</i>
    <separator name="electronic mixer details" >
     <i type="int" name="IMIX">     4</i>
     <i type="logical" name="MIXFIRST"> F  </i>
     <i type="int" name="MAXMIX">   -45</i>
     <i name="WC">    100.00000000</i>
     <i type="int" name="INIMIX">     1</i>
     <i type="int" name="MIXPRE">     1</i>
     <i type="int" name="MREMOVE">     5</i>
    </separator>
   </separator>
   <separator name="electronic dipolcorrection" >
    <i type="logical" name="LDIPOL"> F  </i>
    <i type="logical" name="LMONO"> F  </i>
    <i type="int" name="IDIPOL">     0</i>
    <i name="EPSILON">      1.00000000</i>
    <v name="DIPOL">   -100.00000000   -100.00000000   -100.00000000</v>
    <i name="EFIELD">      0.00000000</i>
   </separator>
  </separator>
  <separator name="grids" >
   <i type="int" name="NGX">    48</i>
   <i type="int" name="NGY">    48</i>
   <i type="int" name="NGZ">    48</i>
   <i type="int" name="NGXF">    96</i>
   <i type="int" name="NGYF">    96</i>
   <i type="int" name="NGZF">    96</i>
   <i type="logical" name="ADDGRID"> F  </i>
  </separator>
  <separator name="ionic" >
   <i type="int" name="NSW">   100</i>
   <i type="int" name="IBRION">     2</i>
   <i type="int" name="MDALGO">     0</i>
   <i type="int" name="ISIF">     3</i>
   <i name="PSTRESS">      0.00000000</i>
   <i name="EDIFFG">     -0.01000000</i>
   <i type="int" name="NFREE">     1</i>
   <i name="POTIM">      0.50000000</i>
   <i name="SMASS">     -3.00000000</i>
   <i name="SCALEE">      1.00000000</i>
  </separator>
  <separator name="ionic md" >
   <i name="TEBEG">      0.00010000</i>
   <i name="TEEND">      0.00010000</i>
   <i type="int" name="NBLOCK">     1</i>
   <i type="int" name="KBLOCK">   100</i>
   <i type="int" name="NPACO">   256</i>
   <i name="APACO">     16.00000000</i>
  </separator>
  <separator name="symmetry" >
   <i type="int" name="ISYM">     2</i>
   <i name="SYMPREC">      0.00001000</i>
  </separator>
  <separator name="dos" >
   <i type="int" name="LORBIT">     0</i>
   <v name="RWIGS">     -1.00000000     -1.00000000     -1.00000000     -1.00000000     -1.00000000     -1.00000000     -1.00000000</v>
   <i type="int" name="NEDOS">   301</i>
   <i name="EMIN">     10.00000000</i>
   <i name="EMAX">    -10.00000000</i>
   <i name="EFERMI">      0.00000000</i>
  </separator>
  <separator name="writing" >
   <i type="int" name="NWRITE">     2</i>
   <i type="logical" name="LWAVE"> F  </i>
   <i type="logical" name="LDOWNSAMPLE"> F  </i>
   <i type="logical" name="LCHARG"> F  </i>
   <i type="logical" name="LPARD"> F  </i>
   <i type="logical" name="LVTOT"> F  </i>
   <i type="logical" name="LVHAR"> F  </i>
   <i type="logical" name="LELF"> F  </i>
   <i type="logical" name="LOPTICS"> F  </i>
   <v name="STM">      0.00000000      0.00000000      0.00000000      0.00000000      0.00000000      0.00000000      0.00000000</v>
  </separator>
  <separator name="performance" >
   <i type="int" name="NPAR">    24</i>
   <i type="int" name="NSIM">     4</i>
   <i type="int" name="NBLK">    -1</i>
   <i type="logical" name="LPLANE"> T  </i>
   <i type="logical" name="LSCALAPACK"> T  </i>
   <i type="logical" name="LSCAAWARE"> F  </i>
   <i type="logical" name="LSCALU"> F  </i>
   <i type="logical" name="LASYNC"> F  </i>
   <i type="logical" name="LORBITALREAL"> F  </i>
  </separator>
  <separator name="miscellaneous" >
   <i type="int" name="IDIOT">     3</i>
   <i type="int" name="ISPECIAL">     0</i>
   <i type="logical" name="LMUSIC"> F  </i>
   <v name="POMASS">     47.88000000     92.91000000     50.94100000     14.00100000     12.01100000     91.22400000     95.94000000</v>
   <v name="DARWINR">      0.00000000      0.00000000      0.00000000      0.00000000      0.00000000      0.00000000      0.00000000</v>
   <v name="DARWINV">      1.00000000      1.00000000      1.00000000      1.00000000      1.00000000      1.00000000      1.00000000</v>
   <i type="logical" name="LCORR"> T  </i>
  </separator>
  <i type="logical" name="GGA_COMPAT"> T  </i>
  <i type="logical" name="LBERRY"> F  </i>
  <i type="int" name="ICORELEVEL">     0</i>
  <i type="logical" name="LDAU"> F  </i>
  <i type="int" name="I_CONSTRAINED_M">     0</i>
  <separator name="electronic exchange-correlation" >
   <i type="string" name="GGA">--</i>
   <i type="int" name="VOSKOWN">     0</i>
   <i type="logical" name="LHFCALC"> F  </i>
   <i type="string" name="PRECFOCK"></i>
   <i type="logical" name="LSYMGRAD"> F  </i>
   <i type="logical" name="LHFONE"> F  </i>
   <i type="logical" name="LRHFCALC"> F  </i>
   <i type="logical" name="LTHOMAS"> F  </i>
   <i type="logical" name="LMODELHF"> F  </i>
   <i name="ENCUT4O">     -1.00000000</i>
   <i type="int" name="EXXOEP">     0</i>
   <i type="int" name="FOURORBIT">     0</i>
   <i name="AEXX">      0.00000000</i>
   <i name="HFALPHA">      0.00000000</i>
   <i name="MCALPHA">      0.00000000</i>
   <i name="ALDAX">      1.00000000</i>
   <i name="AGGAX">      1.00000000</i>
   <i name="ALDAC">      1.00000000</i>
   <i name="AGGAC">      1.00000000</i>
   <i type="int" name="NKREDX">     1</i>
   <i type="int" name="NKREDY">     1</i>
   <i type="int" name="NKREDZ">     1</i>
   <i type="logical" name="SHIFTRED"> F  </i>
   <i type="logical" name="ODDONLY"> F  </i>
   <i type="logical" name="EVENONLY"> F  </i>
   <i type="int" name="LMAXFOCK">     0</i>
   <i type="int" name="NMAXFOCKAE">     0</i>
   <i type="logical" name="LFOCKAEDFT"> F  </i>
   <i name="HFSCREEN">      0.00000000</i>
   <i name="HFSCREENC">      0.00000000</i>
   <i type="int" name="NBANDSGWLOW">     0</i>
  </separator>
  <separator name="vdW DFT" >
   <i type="logical" name="LUSE_VDW"> F  </i>
   <i name="Zab_VDW">     -0.84910000</i>
   <i name="PARAM1">      0.12340000</i>
   <i name="PARAM2">      1.00000000</i>
   <i name="PARAM3">      0.00000000</i>
  </separator>
  <separator name="model GW" >
   <i type="int" name="MODEL_GW">     0</i>
   <i name="MODEL_EPS0">      6.51310357</i>
   <i name="MODEL_ALPHA">      1.00000000</i>
  </separator>
  <separator name="linear response parameters" >
   <i type="logical" name="LEPSILON"> F  </i>
   <i type="logical" name="LRPA"> F  </i>
   <i type="logical" name="LNABLA"> F  </i>
   <i type="logical" name="LVEL"> F  </i>
   <i type="int" name="KINTER">     0</i>
   <i name="CSHIFT">      0.10000000</i>
   <i name="OMEGAMAX">     -1.00000000</i>
   <i name="DEG_THRESHOLD">      0.00200000</i>
   <i name="RTIME">     -0.10000000</i>
   <i name="WPLASMAI">      0.00000000</i>
   <v name="DFIELD">      0.00000000      0.00000000      0.00000000</v>
   <v name="WPLASMA">      0.00000000      0.00000000      0.00000000      0.00000000      0.00000000      0.00000000      0.00000000      0.00000000      0.00000000</v>
  </separator>
  <separator name="orbital magnetization" >
   <i type="logical" name="NUCIND"> F  </i>
   <v name="MAGPOS">      0.00000000      0.00000000      0.00000000</v>
   <i type="logical" name="LNICSALL"> T  </i>
   <i type="logical" name="ORBITALMAG"> F  </i>
   <i type="logical" name="LMAGBLOCH"> F  </i>
   <i type="logical" name="LCHIMAG"> F  </i>
   <i type="logical" name="LGAUGE"> T  </i>
   <i type="int" name="MAGATOM">     0</i>
   <v name="MAGDIPOL">      0.00000000      0.00000000      0.00000000</v>
   <v name="AVECCONST">      0.00000000      0.00000000      0.00000000</v>
  </separator>
  <separator name="response functions" >
   <i type="logical" name="LADDER"> F  </i>
   <i type="logical" name="LRPAFORCE"> F  </i>
   <i type="logical" name="LFXC"> F  </i>
   <i type="logical" name="LHARTREE"> T  </i>
   <i type="int" name="IBSE">     0</i>
   <v type="int" name="KPOINT">    -1     0     0     0</v>
   <i type="logical" name="LTCTE"> F  </i>
   <i type="logical" name="LTETE"> F  </i>
   <i type="logical" name="LTRIPLET"> F  </i>
   <i type="logical" name="LFXCEPS"> F  </i>
   <i type="logical" name="LFXHEG"> F  </i>
   <i type="int" name="NATURALO">     2</i>
   <i type="logical" name="L2ORDER"> F  </i>
   <i type="logical" name="LMP2LT"> F  </i>
   <i type="logical" name="LUSEW"> F  </i>
   <i name="ENCUTGW">     -2.00000000</i>
   <i name="ENCUTGWSOFT">     -2.00000000</i>
   <i name="ENCUTLF">     -1.00000000</i>
   <i type="int" name="LMAXMP2">    -1</i>
   <i name="SCISSOR">      0.00000000</i>
   <i type="int" name="NOMEGA">     0</i>
   <i type="int" name="NOMEGAR">     0</i>
   <i type="int" name="NBANDSGW">    -1</i>
   <i type="int" name="NBANDSO">    -1</i>
   <i type="int" name="NBANDSV">    -1</i>
   <i type="int" name="NELM">    60</i>
   <i type="int" name="NELMHF">     1</i>
   <i type="int" name="DIM">     3</i>
   <i type="int" name="ANTIRES">     0</i>
   <i name="OMEGAMAX">    -30.00000000</i>
   <i name="OMEGAMIN">    -30.00000000</i>
   <i name="OMEGATL">   -200.00000000</i>
   <i type="int" name="OMEGAGRID">   140</i>
   <i name="CSHIFT">     -0.10000000</i>
   <i type="logical" name="SELFENERGY"> F  </i>
   <i type="logical" name="LSPECTRAL"> F  </i>
   <i type="logical" name="LSPECTRALGW"> F  </i>
   <i type="logical" name="LSINGLES"> F  </i>
   <i type="logical" name="LFERMIGW"> F  </i>
   <i type="logical" name="ODDONLYGW"> F  </i>
   <i type="logical" name="EVENONLYGW"> F  </i>
   <i type="int" name="NKREDLFX">     1</i>
   <i type="int" name="NKREDLFY">     1</i>
   <i type="int" name="NKREDLFZ">     1</i>
   <i type="int" name="MAXMEM">  2800</i>
   <i type="int" name="TELESCOPE">     0</i>
   <i type="int" name="TAUPAR">     1</i>
   <i type="int" name="OMEGAPAR">    -1</i>
   <i name="LAMBDA">      1.00000000</i>
  </separator>
  <separator name="External order field" >
   <i name="OFIELD_KAPPA">      0.00000000</i>
   <v name="OFIELD_K">      0.00000000      0.00000000      0.00000000</v>
   <i name="OFIELD_Q6_NEAR">      0.00000000</i>
   <i name="OFIELD_Q6_FAR">      0.00000000</i>
   <i name="OFIELD_A">      0.00000000</i>
  </separator>
 </parameters>
 <atominfo>
  <atoms>      64 </atoms>
  <types>       7 </types>
  <array name="atoms" >
   <dimension dim="1">ion</dimension>
   <field type="string">element</field>
   <field type="int">atomtype</field>
   <set>
    <rc><c>Ti</c><c>   1</c></rc>
    <rc><c>Ti</c><c>   1</c></rc>
    <rc><c>Ti</c><c>   1</c></rc>
    <rc><c>Ti</c><c>   1</c></rc>
    <rc><c>Ti</c><c>   1</c></rc>
    <rc><c>Ti</c><c>   1</c></rc>
    <rc><c>Ti</c><c>   1</c></rc>
    <rc><c>Nb</c><c>   2</c></rc>
    <rc><c>Nb</c><c>   2</c></rc>
    <rc><c>Nb</c><c>   2</c></rc>
    <rc><c>Nb</c><c>   2</c></rc>
    <rc><c>Nb</c><c>   2</c></rc>
    <rc><c>Nb</c><c>   2</c></rc>
    <rc><c>V </c><c>   3</c></rc>
    <rc><c>V </c><c>   3</c></rc>
    <rc><c>V </c><c>   3</c></rc>
    <rc><c>V </c><c>   3</c></rc>
    <rc><c>V </c><c>   3</c></rc>
    <rc><c>V </c><c>   3</c></rc>
    <rc><c>N </c><c>   4</c></rc>
    <rc><c>N </c><c>   4</c></rc>
    <rc><c>N </c><c>   4</c></rc>
    <rc><c>N </c><c>   4</c></rc>
    <rc><c>N </c><c>   4</c></rc>
    <rc><c>N </c><c>   4</c></rc>
    <rc><c>N </c><c>   4</c></rc>
    <rc><c>N </c><c>   4</c></rc>
    <rc><c>N </c><c>   4</c></rc>
    <rc><c>N </c><c>   4</c></rc>
    <rc><c>N </c><c>   4</c></rc>
    <rc><c>N </c><c>   4</c></rc>
    <rc><c>N </c><c>   4</c></rc>
    <rc><c>C </c><c>   5</c></rc>
    <rc><c>C </c><c>   5</c></rc>
    <rc><c>C </c><c>   5</c></rc>
    <rc><c>C </c><c>   5</c></rc>
    <rc><c>C </c><c>   5</c></rc>
    <rc><c>C </c><c>   5</c></rc>
    <rc><c>C </c><c>   5</c></rc>
    <rc><c>C </c><c>   5</c></rc>
    <rc><c>C </c><c>   5</c></rc>
    <rc><c>C </c><c>   5</c></rc>
    <rc><c>C </c><c>   5</c></rc>
    <rc><c>C </c><c>   5</c></rc>
    <rc><c>C </c><c>   5</c></rc>
    <rc><c>C </c><c>   5</c></rc>
    <rc><c>C </c><c>   5</c></rc>
    <rc><c>C </c><c>   5</c></rc>
    <rc><c>C </c><c>   5</c></rc>
    <rc><c>C </c><c>   5</c></rc>
    <rc><c>C </c><c>   5</c></rc>
    <rc><c>Zr</c><c>   6</c></rc>
    <rc><c>Zr</c><c>   6</c></rc>
    <rc><c>Zr</c><c>   6</c></rc>
    <rc><c>Zr</c><c>   6</c></rc>
    <rc><c>Zr</c><c>   6</c></rc>
    <rc><c>Zr</c><c>   6</c></rc>
    <rc><c>Zr</c><c>   6</c></rc>
    <rc><c>Mo</c><c>   7</c></rc>
    <rc><c>Mo</c><c>   7</c></rc>
    <rc><c>Mo</c><c>   7</c></rc>
    <rc><c>Mo</c><c>   7</c></rc>
    <rc><c>Mo</c><c>   7</c></rc>
    <rc><c>Mo</c><c>   7</c></rc>
   </set>
  </array>
  <array name="atomtypes" >
   <dimension dim="1">type</dimension>
   <field type="int">atomspertype</field>
   <field type="string">element</field>
   <field>mass</field>
   <field>valence</field>
   <field type="string">pseudopotential</field>
   <set>
    <rc><c>   7</c><c>Ti</c><c>     47.88000000</c><c>     12.00000000</c><c> PAW_PBE Ti_sv 07Sep2000                </c></rc>
    <rc><c>   6</c><c>Nb</c><c>     92.91000000</c><c>     13.00000000</c><c> PAW_PBE Nb_sv 17Jan2003                </c></rc>
    <rc><c>   6</c><c>V </c><c>     50.94100000</c><c>     13.00000000</c><c> PAW_PBE V_sv 07Sep2000                 </c></rc>
    <rc><c>  13</c><c>N </c><c>     14.00100000</c><c>      5.00000000</c><c> PAW_PBE N 08Apr2002                    </c></rc>
    <rc><c>  19</c><c>C </c><c>     12.01100000</c><c>      4.00000000</c><c> PAW_PBE C 08Apr2002                    </c></rc>
    <rc><c>   7</c><c>Zr</c><c>     91.22400000</c><c>     12.00000000</c><c> PAW_PBE Zr_sv 07Sep2000                </c></rc>
    <rc><c>   6</c><c>Mo</c><c>     95.94000000</c><c>      6.00000000</c><c> PAW_PBE Mo 08Apr2002                   </c></rc>
   </set>
  </array>
 </atominfo>
 <structure name="initialpos" >
  <crystal>
   <varray name="basis" >
    <v>       8.86256204      -0.00742191      -0.00290143 </v>
    <v>      -0.00741934       8.87057405      -0.01197906 </v>
    <v>      -0.00290919      -0.01199621       8.83704042 </v>
   </varray>
   <i name="volume">    694.73104787 </i>
   <varray name="rec_basis" >
    <v>       0.11283428       0.00009442       0.00003727 </v>
    <v>       0.00009446       0.11273256       0.00015306 </v>
    <v>       0.00003717       0.00015285       0.11316028 </v>
   </varray>
  </crystal>
  <varray name="positions" >
   <v>       0.99999819       0.99935766       0.00983884 </v>
   <v>       0.24200228       0.00320288       0.24884767 </v>
   <v>       0.25739610       0.49437809       0.24971119 </v>
   <v>       0.50079572       0.49489993       0.00070046 </v>
   <v>       0.49761892       0.25891254       0.75454582 </v>
   <v>       0.00202165       0.49714132       0.49802212 </v>
   <v>       0.50219534       0.74046868       0.75024947 </v>
   <v>       0.00104348       0.24093056       0.25616769 </v>
   <v>       0.75749137       0.74459122       0.00156091 </v>
   <v>       0.00449397       0.25732101       0.74346121 </v>
   <v>       0.75623272       0.26036893       0.49288501 </v>
   <v>       0.99830326       0.74208753       0.75097779 </v>
   <v>       0.25553889       0.49673031       0.75163904 </v>
   <v>       0.26122682       0.26068568       0.99490871 </v>
   <v>       0.50302091       0.25909619       0.24345350 </v>
   <v>       0.75961612       0.99572673       0.24772086 </v>
   <v>       0.73829150       0.25740507       0.00783057 </v>
   <v>       0.23739505       0.73985491       0.00175434 </v>
   <v>       0.23907472       0.25133885       0.50515381 </v>
   <v>       0.25258610       0.24933213       0.25033281 </v>
   <v>       0.24291481       0.00143027       0.00950519 </v>
   <v>       0.99902410       0.24112384       0.00068443 </v>
   <v>       0.74557526       0.24384538       0.24595130 </v>
   <v>       0.75763371       0.00445625       0.00743876 </v>
   <v>       0.49997417       0.00942575       0.24850246 </v>
   <v>       0.00598328       0.49596331       0.25825236 </v>
   <v>       0.49884108       0.74417143       0.99188924 </v>
   <v>       0.99928457       0.00130078       0.75752374 </v>
   <v>       0.74545169       0.25145913       0.75229992 </v>
   <v>       0.75277173       0.00255166       0.49200050 </v>
   <v>       0.49784196       0.25369402       0.49901190 </v>
   <v>       0.50180534       0.00166410       0.75167401 </v>
   <v>       0.99817226       0.99878133       0.24704658 </v>
   <v>       0.50028153       0.25916328       0.00298362 </v>
   <v>       0.24325778       0.74965646       0.23787062 </v>
   <v>       0.25799464       0.50063316       0.00510622 </v>
   <v>       0.00550720       0.75762702       0.00048691 </v>
   <v>       0.75524723       0.75334773       0.25222006 </v>
   <v>       0.74194550       0.49290031       0.00064875 </v>
   <v>       0.49686731       0.48755415       0.24676039 </v>
   <v>       0.25331319       0.25406436       0.74912339 </v>
   <v>       0.24416809       0.01106379       0.49024234 </v>
   <v>       0.00536706       0.25463578       0.49966567 </v>
   <v>       0.25365604       0.74578982       0.76148570 </v>
   <v>       0.24882097       0.48682993       0.49492945 </v>
   <v>       0.99299087       0.74813612       0.49831271 </v>
   <v>       0.00040247       0.49897248       0.74207630 </v>
   <v>       0.74470174       0.74461473       0.74946903 </v>
   <v>       0.75438578       0.50066271       0.49872470 </v>
   <v>       0.50538919       0.74350206       0.50897692 </v>
   <v>       0.50097801       0.49945243       0.75261909 </v>
   <v>       0.49922962       0.00647042       0.00488684 </v>
   <v>       0.00025071       0.49710355       0.00448982 </v>
   <v>       0.49930791       0.74377801       0.24704884 </v>
   <v>       0.24730409       0.00248670       0.75435736 </v>
   <v>       0.49673424       0.00453588       0.49526531 </v>
   <v>       0.75227323       0.99850632       0.75082370 </v>
   <v>       0.24776271       0.74708204       0.49821777 </v>
   <v>       0.99968034       0.76382463       0.24741942 </v>
   <v>       0.73599645       0.50364639       0.24663260 </v>
   <v>       0.00628451       0.00732390       0.48724403 </v>
   <v>       0.50346425       0.50036617       0.49843746 </v>
   <v>       0.74472850       0.50596690       0.75325552 </v>
   <v>       0.75009245       0.73660595       0.49867793 </v>
  </varray>
 </structure>
 <calculation>
  <scstep>
   <time name="dav">   19.49   19.56</time>
   <time name="total">   19.53   19.60</time>
   <energy>
    <i name="alphaZ">   3839.15820886 </i>
    <i name="ewald"> -40577.86688624 </i>
    <i name="hartreedc"> -10014.29140805 </i>
    <i name="XCdc">   1721.81054543 </i>
    <i name="pawpsdc">  31351.64920072 </i>
    <i name="pawaedc"> -30677.13568978 </i>
    <i name="eentropy">     -0.08983530 </i>
    <i name="bandstr">   1711.24849445 </i>
    <i name="atom">  48674.02753426 </i>
    <i name="e_fr_energy">   6028.51016435 </i>
    <i name="e_wo_entrp">   6028.59999964 </i>
    <i name="e_0_energy">   6028.55508199 </i>
   </energy>
  </scstep>
  <scstep>
   <time name="dav">   20.33   20.34</time>
   <time name="total">   20.33   20.34</time>
   <energy>
    <i name="e_fr_energy">    291.13200030 </i>
    <i name="e_wo_entrp">    291.26056588 </i>
    <i name="e_0_energy">    291.19628309 </i>
   </energy>
  </scstep>
  <scstep>
   <time name="dav">   30.97   31.06</time>
   <time name="total">   30.98   31.06</time>
   <energy>
    <i name="e_fr_energy">   -662.26430939 </i>
    <i name="e_wo_entrp">   -662.18159206 </i>
    <i name="e_0_energy">   -662.22295073 </i>
   </energy>
  </scstep>
  <scstep>
   <time name="dav">   31.18   31.33</time>
   <time name="total">   31.18   31.33</time>
   <energy>
    <i name="e_fr_energy">   -769.36477667 </i>
    <i name="e_wo_entrp">   -769.28127619 </i>
    <i name="e_0_energy">   -769.32302643 </i>
   </energy>
  </scstep>
  <scstep>
   <time name="dav">   35.33   35.38</time>
   <time name="total">   35.59   35.63</time>
   <energy>
    <i name="e_fr_energy">   -781.58599771 </i>
    <i name="e_wo_entrp">   -781.49659932 </i>
    <i name="e_0_energy">   -781.54129852 </i>
   </energy>
  </scstep>
  <scstep>
   <time name="diag">    1.81    1.85</time>
   <time name="diis">   18.70   18.72</time>
   <time name="orth">    0.42    0.42</time>
   <time name="total">   21.21   21.28</time>
   <energy>
    <i name="e_fr_energy">   -731.56299516 </i>
    <i name="e_wo_entrp">   -731.46744123 </i>
    <i name="e_0_energy">   -731.51521820 </i>
   </energy>
  </scstep>
  <scstep>
   <time name="diag">    1.78    1.78</time>
   <time name="diis">   15.71   15.72</time>
   <time name="orth">    0.42    0.42</time>
   <time name="total">   18.19   18.20</time>
   <energy>
    <i name="e_fr_energy">   -659.29374105 </i>
    <i name="e_wo_entrp">   -659.15597214 </i>
    <i name="e_0_energy">   -659.22485660 </i>
   </energy>
  </scstep>
  <scstep>
   <time name="diag">    1.77    1.77</time>
   <time name="diis">   20.34   20.44</time>
   <time name="orth">    0.44    0.45</time>
   <time name="total">   22.84   22.96</time>
   <energy>
    <i name="e_fr_energy">   -632.47458534 </i>
    <i name="e_wo_entrp">   -632.33176650 </i>
    <i name="e_0_energy">   -632.40317592 </i>
   </energy>
  </scstep>
  <scstep>
   <time name="diag">    1.83    1.84</time>
   <time name="diis">   19.28   19.34</time>
   <time name="orth">    0.42    0.42</time>
   <time name="total">   21.81   21.89</time>
   <energy>
    <i name="e_fr_energy">   -630.15210769 </i>
    <i name="e_wo_entrp">   -630.01798959 </i>
    <i name="e_0_energy">   -630.08504864 </i>
   </energy>
  </scstep>
  <scstep>
   <time name="diag">    1.76    1.76</time>
   <time name="diis">   21.03   21.05</time>
   <time name="orth">    0.42    0.42</time>
   <time name="total">   23.49   23.51</time>
   <energy>
    <i name="e_fr_energy">   -630.22780137 </i>
    <i name="e_wo_entrp">   -630.08495051 </i>
    <i name="e_0_energy">   -630.15637594 </i>
   </energy>
  </scstep>
  <scstep>
   <time name="diag">    1.76    1.76</time>
   <time name="diis">   20.18   20.24</time>
   <time name="orth">    0.41    0.42</time>
   <time name="total">   22.64   22.70</time>
   <energy>
    <i name="e_fr_energy">   -629.94901870 </i>
    <i name="e_wo_entrp">   -629.79968510 </i>
    <i name="e_0_energy">   -629.87435190 </i>
   </energy>
  </scstep>
  <scstep>
   <time name="diag">    1.78    1.79</time>
   <time name="diis">   20.28   20.31</time>
   <time name="orth">    0.41    0.41</time>
   <time name="total">   22.75   22.80</time>
   <energy>
    <i name="e_fr_energy">   -629.91241007 </i>
    <i name="e_wo_entrp">   -629.77140907 </i>
    <i name="e_0_energy">   -629.84190957 </i>
   </energy>
  </scstep>
  <scstep>
   <time name="diag">    1.78    1.78</time>
   <time name="diis">   20.96   21.04</time>
   <time name="orth">    0.44    0.44</time>
   <time name="total">   23.46   23.55</time>
   <energy>
    <i name="e_fr_energy">   -629.89227094 </i>
    <i name="e_wo_entrp">   -629.75478890 </i>
    <i name="e_0_energy">   -629.82352992 </i>
   </energy>
  </scstep>
  <scstep>
   <time name="diag">    1.77    1.79</time>
   <time name="diis">   20.34   20.35</time>
   <time name="orth">    0.41    0.41</time>
   <time name="total">   22.81   22.83</time>
   <energy>
    <i name="e_fr_energy">   -629.82864347 </i>
    <i name="e_wo_entrp">   -629.68642909 </i>
    <i name="e_0_energy">   -629.75753628 </i>
   </energy>
  </scstep>
  <scstep>
   <time name="diag">    1.77    1.77</time>
   <time name="diis">   20.80   20.85</time>
   <time name="orth">    0.43    0.43</time>
   <time name="total">   23.28   23.33</time>
   <energy>
    <i name="e_fr_energy">   -629.84850443 </i>
    <i name="e_wo_entrp">   -629.71124820 </i>
    <i name="e_0_energy">   -629.77987632 </i>
   </energy>
  </scstep>
  <scstep>
   <time name="diag">    1.77    1.77</time>
   <time name="diis">   20.18   20.25</time>
   <time name="orth">    0.41    0.41</time>
   <time name="total">   22.64   22.72</time>
   <energy>
    <i name="e_fr_energy">   -629.84625726 </i>
    <i name="e_wo_entrp">   -629.70483498 </i>
    <i name="e_0_energy">   -629.77554612 </i>
   </energy>
  </scstep>
  <scstep>
   <time name="diag">    1.76    1.76</time>
   <time name="diis">   20.22   20.24</time>
   <time name="orth">    0.42    0.42</time>
   <time name="total">   22.67   22.70</time>
   <energy>
    <i name="e_fr_energy">   -629.84997831 </i>
    <i name="e_wo_entrp">   -629.71131769 </i>
    <i name="e_0_energy">   -629.78064800 </i>
   </energy>
  </scstep>
  <scstep>
   <time name="diag">    1.76    1.76</time>
   <time name="diis">   20.35   20.38</time>
   <time name="orth">    0.42    0.42</time>
   <time name="total">   22.81   22.85</time>
   <energy>
    <i name="e_fr_energy">   -629.84359057 </i>
    <i name="e_wo_entrp">   -629.70436660 </i>
    <i name="e_0_energy">   -629.77397859 </i>
   </energy>
  </scstep>
  <scstep>
   <time name="diag">    1.83    1.84</time>
   <time name="diis">   20.31   20.40</time>
   <time name="orth">    0.41    0.41</time>
   <time name="total">   22.83   22.94</time>
   <energy>
    <i name="e_fr_energy">   -629.84361849 </i>
    <i name="e_wo_entrp">   -629.70416333 </i>
    <i name="e_0_energy">   -629.77389091 </i>
   </energy>
  </scstep>
  <scstep>
   <time name="diag">    1.77    1.77</time>
   <time name="diis">   21.04   21.07</time>
   <time name="orth">    0.41    0.41</time>
   <time name="total">   23.50   23.54</time>
   <energy>
    <i name="e_fr_energy">   -629.83991709 </i>
    <i name="e_wo_entrp">   -629.70070825 </i>
    <i name="e_0_energy">   -629.77031267 </i>
   </energy>
  </scstep>
  <scstep>
   <time name="diag">    1.77    1.77</time>
   <time name="diis">   20.67   20.74</time>
   <time name="orth">    0.42    0.42</time>
   <time name="total">   23.12   23.21</time>
   <energy>
    <i name="e_fr_energy">   -629.83953328 </i>
    <i name="e_wo_entrp">   -629.70010968 </i>
    <i name="e_0_energy">   -629.76982148 </i>
   </energy>
  </scstep>
  <scstep>
   <time name="diag">    1.77    1.77</time>
   <time name="diis">   19.22   19.26</time>
   <time name="orth">    0.42    0.42</time>
   <time name="total">   21.68   21.73</time>
   <energy>
    <i name="e_fr_energy">   -629.83982802 </i>
    <i name="e_wo_entrp">   -629.70023766 </i>
    <i name="e_0_energy">   -629.77003284 </i>
   </energy>
  </scstep>
  <scstep>
   <time name="diag">    1.77    1.77</time>
   <time name="diis">   19.54   19.63</time>
   <time name="orth">    0.42    0.42</time>
   <time name="total">   22.00   22.10</time>
   <energy>
    <i name="e_fr_energy">   -629.84009851 </i>
    <i name="e_wo_entrp">   -629.70049619 </i>
    <i name="e_0_energy">   -629.77029735 </i>
   </energy>
  </scstep>
  <scstep>
   <time name="diag">    1.77    1.77</time>
   <time name="diis">   18.32   18.38</time>
   <time name="orth">    0.42    0.42</time>
   <time name="total">   20.79   20.85</time>
   <energy>
    <i name="e_fr_energy">   -629.84024132 </i>
    <i name="e_wo_entrp">   -629.70066710 </i>
    <i name="e_0_energy">   -629.77045421 </i>
   </energy>
  </scstep>
  <scstep>
   <time name="diag">    1.76    1.76</time>
   <time name="diis">   17.73   17.74</time>
   <time name="orth">    0.42    0.42</time>
   <time name="total">   20.19   20.21</time>
   <energy>
    <i name="e_fr_energy">   -629.84034754 </i>
    <i name="e_wo_entrp">   -629.70078466 </i>
    <i name="e_0_energy">   -629.77056610 </i>
   </energy>
  </scstep>
  <scstep>
   <time name="diag">    1.78    1.79</time>
   <time name="diis">   17.18   17.19</time>
   <time name="orth">    0.42    0.42</time>
   <time name="total">   19.66   19.68</time>
   <energy>
    <i name="e_fr_energy">   -629.84043721 </i>
    <i name="e_wo_entrp">   -629.70086378 </i>
    <i name="e_0_energy">   -629.77065050 </i>
   </energy>
  </scstep>
  <scstep>
   <time name="diag">    1.76    1.76</time>
   <time name="diis">   16.43   16.47</time>
   <time name="orth">    0.42    0.42</time>
   <time name="total">   18.89   18.93</time>
   <energy>
    <i name="e_fr_energy">   -629.84048434 </i>
    <i name="e_wo_entrp">   -629.70092703 </i>
    <i name="e_0_energy">   -629.77070569 </i>
   </energy>
  </scstep>
  <scstep>
   <time name="diag">    1.76    1.77</time>
   <time name="diis">   15.43   15.47</time>
   <time name="orth">    0.43    0.44</time>
   <time name="total">   17.92   17.96</time>
   <energy>
    <i name="e_fr_energy">   -629.84051325 </i>
    <i name="e_wo_entrp">   -629.70095012 </i>
    <i name="e_0_energy">   -629.77073168 </i>
   </energy>
  </scstep>
  <scstep>
   <time name="diag">    1.76    1.76</time>
   <time name="diis">   15.13   15.15</time>
   <time name="orth">    0.41    0.41</time>
   <time name="total">   17.59   17.61</time>
   <energy>
    <i name="e_fr_energy">   -629.84053633 </i>
    <i name="e_wo_entrp">   -629.70097043 </i>
    <i name="e_0_energy">   -629.77075338 </i>
   </energy>
  </scstep>
  <scstep>
   <time name="diag">    1.76    1.77</time>
   <time name="diis">   13.12   13.14</time>
   <time name="orth">    0.41    0.41</time>
   <time name="total">   15.58   15.61</time>
   <energy>
    <i name="e_fr_energy">   -629.84055055 </i>
    <i name="e_wo_entrp">   -629.70098842 </i>
    <i name="e_0_energy">   -629.77076948 </i>
   </energy>
  </scstep>
  <scstep>
   <time name="diag">    1.82    1.84</time>
   <time name="diis">   12.64   12.68</time>
   <time name="orth">    0.42    0.42</time>
   <time name="total">   15.16   15.22</time>
   <energy>
    <i name="e_fr_energy">   -629.84055979 </i>
    <i name="e_wo_entrp">   -629.70100039 </i>
    <i name="e_0_energy">   -629.77078009 </i>
   </energy>
  </scstep>
  <scstep>
   <time name="diag">    1.78    1.79</time>
   <time name="diis">   12.30   12.33</time>
   <time name="orth">    0.42    0.42</time>
   <time name="total">   14.53   14.57</time>
   <energy>
    <i name="alphaZ">   3839.15820886 </i>
    <i name="ewald"> -40577.86688624 </i>
    <i name="hartreedc">  -9470.06027309 </i>
    <i name="XCdc">   1712.38809821 </i>
    <i name="pawpsdc">  32388.87849013 </i>
    <i name="pawaedc"> -31728.64930293 </i>
    <i name="eentropy">     -0.13955812 </i>
    <i name="bandstr">  -5467.57687732 </i>
    <i name="atom">  48674.02753426 </i>
    <i name="e_fr_energy">   -629.84056624 </i>
    <i name="e_wo_entrp">   -629.70100812 </i>
    <i name="e_0_energy">   -629.77078718 </i>
   </energy>
  </scstep>
  <structure>
   <crystal>
    <varray name="basis" >
     <v>       8.86256204      -0.00742191      -0.00290143 </v>
     <v>      -0.00741934       8.87057405      -0.01197906 </v>
     <v>      -0.00290919      -0.01199621       8.83704042 </v>
    </varray>
    <i name="volume">    694.73104787 </i>
    <varray name="rec_basis" >
     <v>       0.11283428       0.00009442       0.00003727 </v>
     <v>       0.00009446       0.11273256       0.00015306 </v>
     <v>       0.00003717       0.00015285       0.11316028 </v>
    </varray>
   </crystal>
   <varray name="positions" >
    <v>       0.99999819       0.99935766       0.00983884 </v>
    <v>       0.24200228       0.00320288       0.24884767 </v>
    <v>       0.25739610       0.49437809       0.24971119 </v>
    <v>       0.50079572       0.49489993       0.00070046 </v>
    <v>       0.49761892       0.25891254       0.75454582 </v>
    <v>       0.00202165       0.49714132       0.49802212 </v>
    <v>       0.50219534       0.74046868       0.75024947 </v>
    <v>       0.00104348       0.24093056       0.25616769 </v>
    <v>       0.75749137       0.74459122       0.00156091 </v>
    <v>       0.00449397       0.25732101       0.74346121 </v>
    <v>       0.75623272       0.26036893       0.49288501 </v>
    <v>       0.99830326       0.74208753       0.75097779 </v>
    <v>       0.25553889       0.49673031       0.75163904 </v>
    <v>       0.26122682       0.26068568       0.99490871 </v>
    <v>       0.50302091       0.25909619       0.24345350 </v>
    <v>       0.75961612       0.99572673       0.24772086 </v>
    <v>       0.73829150       0.25740507       0.00783057 </v>
    <v>       0.23739505       0.73985491       0.00175434 </v>
    <v>       0.23907472       0.25133885       0.50515381 </v>
    <v>       0.25258610       0.24933213       0.25033281 </v>
    <v>       0.24291481       0.00143027       0.00950519 </v>
    <v>       0.99902410       0.24112384       0.00068443 </v>
    <v>       0.74557526       0.24384538       0.24595130 </v>
    <v>       0.75763371       0.00445625       0.00743876 </v>
    <v>       0.49997417       0.00942575       0.24850246 </v>
    <v>       0.00598328       0.49596331       0.25825236 </v>
    <v>       0.49884108       0.74417143       0.99188924 </v>
    <v>       0.99928457       0.00130078       0.75752374 </v>
    <v>       0.74545169       0.25145913       0.75229992 </v>
    <v>       0.75277173       0.00255166       0.49200050 </v>
    <v>       0.49784196       0.25369402       0.49901190 </v>
    <v>       0.50180534       0.00166410       0.75167401 </v>
    <v>       0.99817226       0.99878133       0.24704658 </v>
    <v>       0.50028153       0.25916328       0.00298362 </v>
    <v>       0.24325778       0.74965646       0.23787062 </v>
    <v>       0.25799464       0.50063316       0.00510622 </v>
    <v>       0.00550720       0.75762702       0.00048691 </v>
    <v>       0.75524723       0.75334773       0.25222006 </v>
    <v>       0.74194550       0.49290031       0.00064875 </v>
    <v>       0.49686731       0.48755415       0.24676039 </v>
    <v>       0.25331319       0.25406436       0.74912339 </v>
    <v>       0.24416809       0.01106379       0.49024234 </v>
    <v>       0.00536706       0.25463578       0.49966567 </v>
    <v>       0.25365604       0.74578982       0.76148570 </v>
    <v>       0.24882097       0.48682993       0.49492945 </v>
    <v>       0.99299087       0.74813612       0.49831271 </v>
    <v>       0.00040247       0.49897248       0.74207630 </v>
    <v>       0.74470174       0.74461473       0.74946903 </v>
    <v>       0.75438578       0.50066271       0.49872470 </v>
    <v>       0.50538919       0.74350206       0.50897692 </v>
    <v>       0.50097801       0.49945243       0.75261909 </v>
    <v>       0.49922962       0.00647042       0.00488684 </v>
    <v>       0.00025071       0.49710355       0.00448982 </v>
    <v>       0.49930791       0.74377801       0.24704884 </v>
    <v>       0.24730409       0.00248670       0.75435736 </v>
    <v>       0.49673424       0.00453588       0.49526531 </v>
    <v>       0.75227323       0.99850632       0.75082370 </v>
    <v>       0.24776271       0.74708204       0.49821777 </v>
    <v>       0.99968034       0.76382463       0.24741942 </v>
    <v>       0.73599645       0.50364639       0.24663260 </v>
    <v>       0.00628451       0.00732390       0.48724403 </v>
    <v>       0.50346425       0.50036617       0.49843746 </v>
    <v>       0.74472850       0.50596690       0.75325552 </v>
    <v>       0.75009245       0.73660595       0.49867793 </v>
   </varray>
  </structure>
  <varray name="forces" >
   <v>      -0.04478632       0.18470361      -0.00267552 </v>
   <v>      -0.13496393       0.09484235      -0.15463175 </v>
   <v>       0.17456348      -0.43054923       0.11719771 </v>
   <v>       0.04030937       0.22721057      -0.01114909 </v>
   <v>       0.10490158      -0.00783855       0.07338699 </v>
   <v>       0.14316289      -0.04558968      -0.25028175 </v>
   <v>      -0.07027542      -0.02968815       0.18107498 </v>
   <v>      -0.07360260       0.17264753      -0.14380146 </v>
   <v>       0.25534177      -0.04542908       0.06221596 </v>
   <v>       0.04206498       0.22534041       0.05649383 </v>
   <v>       0.11190975       0.26042266      -0.17768509 </v>
   <v>      -0.08023478      -0.37878136      -0.17172630 </v>
   <v>       0.01282571       0.09986591      -0.05138301 </v>
   <v>       0.56275435       0.38769061      -0.24191318 </v>
   <v>       0.43736555       0.22836871      -0.23927602 </v>
   <v>       0.40058964      -0.22830568      -0.19770903 </v>
   <v>      -0.80658785       0.03747734       0.69645126 </v>
   <v>      -0.39255004      -0.50826710       0.08879630 </v>
   <v>      -0.44466141      -0.10572170       0.34709980 </v>
   <v>      -0.06679841      -0.02804799      -0.10458184 </v>
   <v>       0.25073189       0.26887107      -0.20217083 </v>
   <v>       0.00919401       0.12142313       0.02135276 </v>
   <v>      -0.01865171       0.05341837      -0.03154239 </v>
   <v>      -0.18559094      -0.09028735      -0.14410435 </v>
   <v>       0.04944606      -0.14701578      -0.02027221 </v>
   <v>      -0.06264400      -0.20687249      -0.22726793 </v>
   <v>       0.20153759       0.25621201       0.22190340 </v>
   <v>      -0.02932492       0.06920241      -0.05060798 </v>
   <v>       0.15512606      -0.10893291      -0.14567391 </v>
   <v>      -0.07887564       0.16615625       0.20072014 </v>
   <v>       0.20156586      -0.04530016       0.02083951 </v>
   <v>       0.01813088       0.14885806       0.00206966 </v>
   <v>       0.07739717       0.17090989       0.07266534 </v>
   <v>      -0.13507361      -0.23241068      -0.13503230 </v>
   <v>       0.19293138      -0.09583906       0.29318036 </v>
   <v>      -0.36358113      -0.01703587      -0.13424416 </v>
   <v>      -0.08497409      -0.45656578      -0.04347905 </v>
   <v>      -0.19722512      -0.20671654      -0.01036801 </v>
   <v>       0.30863946       0.04234308       0.03187629 </v>
   <v>      -0.14520146       0.52829025       0.03734892 </v>
   <v>      -0.04349044      -0.15572819       0.07818440 </v>
   <v>       0.19074662      -0.37889941       0.37386293 </v>
   <v>      -0.20321741      -0.04460164       0.05353118 </v>
   <v>      -0.12836759       0.13394437      -0.20549515 </v>
   <v>       0.25222552       0.26179714       0.11271188 </v>
   <v>       0.14925836       0.32115336       0.04844316 </v>
   <v>       0.01772172      -0.03431292       0.38009155 </v>
   <v>       0.17774579       0.21374812       0.13110732 </v>
   <v>       0.09724165      -0.11011416      -0.13127747 </v>
   <v>      -0.31470701       0.23809696      -0.39009324 </v>
   <v>       0.01825637      -0.04341474      -0.09965894 </v>
   <v>       0.00592936      -0.17416466       0.09880932 </v>
   <v>      -0.04966104      -0.19024914       0.12063389 </v>
   <v>      -0.14641429      -0.04355728      -0.03030493 </v>
   <v>      -0.12597153      -0.14382967       0.14895478 </v>
   <v>      -0.00149373       0.14463674      -0.08214093 </v>
   <v>       0.10438325       0.01126820      -0.10051692 </v>
   <v>       0.03108956      -0.01773852      -0.00367932 </v>
   <v>       0.05091320       0.18266618       0.09946183 </v>
   <v>      -0.48899352      -0.36471810      -0.11347989 </v>
   <v>       0.13802483       0.33339391      -0.26323999 </v>
   <v>       0.22975269       0.12651125      -0.10023246 </v>
   <v>      -0.11923216       0.03830658       0.16373505 </v>
   <v>      -0.17662625      -0.63325342       0.07749590 </v>
  </varray>
  <varray name="stress" >
   <v>     -52.13584697       0.70752103       0.63975762 </v>
   <v>       0.70752017     -50.99567553       0.08444385 </v>
   <v>       0.63975742       0.08444419     -56.39468606 </v>
  </varray>
  <energy>
   <i name="e_fr_energy">   -629.84056624 </i>
   <i name="e_wo_entrp">   -629.77078718 </i>
   <i name="e_0_energy">     -0.13955812 </i>
  </energy>
  <time name="totalsc">  743.91  745.79</time>
 </calculation>
 <calculation>
  <scstep>
   <time name="dav">   23.33   23.38</time>
   <time name="total">   23.61   23.66</time>
   <energy>
    <i name="alphaZ">   4046.51000781 </i>
    <i name="ewald"> -41282.18501883 </i>
    <i name="hartreedc">  -9648.77277166 </i>
    <i name="XCdc">   1748.04494522 </i>
    <i name="pawpsdc">  32388.91360706 </i>
    <i name="pawaedc"> -31728.67400295 </i>
    <i name="eentropy">     -0.11274093 </i>
    <i name="bandstr">  -4835.72912295 </i>
    <i name="atom">  48674.02753426 </i>
    <i name="e_fr_energy">   -637.97756297 </i>
    <i name="e_wo_entrp">   -637.86482203 </i>
    <i name="e_0_energy">   -637.92119250 </i>
   </energy>
  </scstep>
  <scstep>
   <time name="diag">    1.77    1.77</time>
   <time name="diis">   16.38   16.39</time>
   <time name="orth">    0.42    0.42</time>
   <time name="total">   18.84   18.85</time>
   <energy>
    <i name="e_fr_energy">   -662.91843327 </i>
    <i name="e_wo_entrp">   -662.78546769 </i>
    <i name="e_0_energy">   -662.85195048 </i>
   </energy>
  </scstep>
  <scstep>
   <time name="diag">    1.77    1.77</time>
   <time name="diis">   16.26   16.32</time>
   <time name="orth">    0.41    0.41</time>
   <time name="total">   18.72   18.79</time>
   <energy>
    <i name="e_fr_energy">   -632.63683566 </i>
    <i name="e_wo_entrp">   -632.50007742 </i>
    <i name="e_0_energy">   -632.56845654 </i>
   </energy>
  </scstep>
  <scstep>
   <time name="diag">    1.76    1.76</time>
   <time name="diis">   19.96   20.00</time>
   <time name="orth">    0.42    0.42</time>
   <time name="total">   22.42   22.46</time>
   <energy>
    <i name="e_fr_energy">   -631.31158651 </i>
    <i name="e_wo_entrp">   -631.18988339 </i>
    <i name="e_0_energy">   -631.25073495 </i>
   </energy>
  </scstep>
  <scstep>
   <time name="diag">    1.77    1.77</time>
   <time name="diis">   18.39   18.40</time>
   <time name="orth">    0.42    0.42</time>
   <time name="total">   20.86   20.87</time>
   <energy>
    <i name="e_fr_energy">   -630.06890394 </i>
    <i name="e_wo_entrp">   -629.94758231 </i>
    <i name="e_0_energy">   -630.00824312 </i>
   </energy>
  </scstep>
  <scstep>
   <time name="diag">    1.83    1.84</time>
   <time name="diis">   17.64   17.64</time>
   <time name="orth">    0.44    0.44</time>
   <time name="total">   20.19   20.20</time>
   <energy>
    <i name="e_fr_energy">   -629.75728107 </i>
    <i name="e_wo_entrp">   -629.64074134 </i>
    <i name="e_0_energy">   -629.69901120 </i>
   </energy>
  </scstep>
  <scstep>
   <time name="diag">    1.77    1.77</time>
   <time name="diis">   19.89   19.92</time>
   <time name="orth">    0.42    0.42</time>
   <time name="total">   22.36   22.39</time>
   <energy>
    <i name="e_fr_energy">   -629.51650642 </i>
    <i name="e_wo_entrp">   -629.39782910 </i>
    <i name="e_0_energy">   -629.45716776 </i>
   </energy>
  </scstep>
  <scstep>
   <time name="diag">    1.77    1.77</time>
   <time name="diis">   20.96   20.99</time>
   <time name="orth">    0.42    0.42</time>
   <time name="total">   23.42   23.46</time>
   <energy>
    <i name="e_fr_energy">   -629.47617263 </i>
    <i name="e_wo_entrp">   -629.35797403 </i>
    <i name="e_0_energy">   -629.41707333 </i>
   </energy>
  </scstep>
  <scstep>
   <time name="diag">    1.77    1.77</time>
   <time name="diis">   21.79   21.87</time>
   <time name="orth">    0.44    0.44</time>
   <time name="total">   24.27   24.35</time>
   <energy>
    <i name="e_fr_energy">   -629.45668583 </i>
    <i name="e_wo_entrp">   -629.33725770 </i>
    <i name="e_0_energy">   -629.39697176 </i>
   </energy>
  </scstep>
  <scstep>
   <time name="diag">    1.77    1.77</time>
   <time name="diis">   21.31   21.38</time>
   <time name="orth">    0.41    0.41</time>
   <time name="total">   23.77   23.85</time>
   <energy>
    <i name="e_fr_energy">   -629.46090630 </i>
    <i name="e_wo_entrp">   -629.34196626 </i>
    <i name="e_0_energy">   -629.40143628 </i>
   </energy>
  </scstep>
  <scstep>
   <time name="diag">    1.77    1.77</time>
   <time name="diis">   21.96   21.98</time>
   <time name="orth">    0.42    0.42</time>
   <time name="total">   24.42   24.44</time>
   <energy>
    <i name="e_fr_energy">   -629.46858654 </i>
    <i name="e_wo_entrp">   -629.34992647 </i>
    <i name="e_0_energy">   -629.40925651 </i>
   </energy>
  </scstep>
  <scstep>
   <time name="diag">    1.79    1.79</time>
   <time name="diis">   21.57   21.58</time>
   <time name="orth">    0.41    0.41</time>
   <time name="total">   24.05   24.07</time>
   <energy>
    <i name="e_fr_energy">   -629.47697550 </i>
    <i name="e_wo_entrp">   -629.35768524 </i>
    <i name="e_0_energy">   -629.41733037 </i>
   </energy>
  </scstep>
  <scstep>
   <time name="diag">    1.76    1.76</time>
   <time name="diis">   22.44   22.46</time>
   <time name="orth">    0.41    0.42</time>
   <time name="total">   24.89   24.92</time>
   <energy>
    <i name="e_fr_energy">   -629.48754878 </i>
    <i name="e_wo_entrp">   -629.36902294 </i>
    <i name="e_0_energy">   -629.42828586 </i>
   </energy>
  </scstep>
  <scstep>
   <time name="diag">    1.84    1.84</time>
   <time name="diis">   22.31   22.37</time>
   <time name="orth">    0.41    0.41</time>
   <time name="total">   24.84   24.91</time>
   <energy>
    <i name="e_fr_energy">   -629.48834244 </i>
    <i name="e_wo_entrp">   -629.36899402 </i>
    <i name="e_0_energy">   -629.42866823 </i>
   </energy>
  </scstep>
  <scstep>
   <time name="diag">    1.76    1.76</time>
   <time name="diis">   22.20   22.21</time>
   <time name="orth">    0.42    0.42</time>
   <time name="total">   24.66   24.68</time>
   <energy>
    <i name="e_fr_energy">   -629.48893575 </i>
    <i name="e_wo_entrp">   -629.36974738 </i>
    <i name="e_0_energy">   -629.42934157 </i>
   </energy>
  </scstep>
  <scstep>
   <time name="diag">    1.78    1.78</time>
   <time name="diis">   21.89   21.91</time>
   <time name="orth">    0.42    0.42</time>
   <time name="total">   24.36   24.38</time>
   <energy>
    <i name="e_fr_energy">   -629.48933094 </i>
    <i name="e_wo_entrp">   -629.37013597 </i>
    <i name="e_0_energy">   -629.42973345 </i>
   </energy>
  </scstep>
  <scstep>
   <time name="diag">    1.76    1.77</time>
   <time name="diis">   21.37   21.38</time>
   <time name="orth">    0.42    0.42</time>
   <time name="total">   23.83   23.84</time>
   <energy>
    <i name="e_fr_energy">   -629.48962664 </i>
    <i name="e_wo_entrp">   -629.37045534 </i>
    <i name="e_0_energy">   -629.43004099 </i>
   </energy>
  </scstep>
  <scstep>
   <time name="diag">    1.76    1.76</time>
   <time name="diis">   20.37   20.39</time>
   <time name="orth">    0.41    0.41</time>
   <time name="total">   22.82   22.85</time>
   <energy>
    <i name="e_fr_energy">   -629.48976841 </i>
    <i name="e_wo_entrp">   -629.37058848 </i>
    <i name="e_0_energy">   -629.43017844 </i>
   </energy>
  </scstep>
  <scstep>
   <time name="diag">    1.77    1.77</time>
   <time name="diis">   19.25   19.34</time>
   <time name="orth">    0.42    0.42</time>
   <time name="total">   21.70   21.82</time>
   <energy>
    <i name="e_fr_energy">   -629.48985002 </i>
    <i name="e_wo_entrp">   -629.37067508 </i>
    <i name="e_0_energy">   -629.43026255 </i>
   </energy>
  </scstep>
  <scstep>
   <time name="diag">    1.77    1.77</time>
   <time name="diis">   18.61   18.62</time>
   <time name="orth">    0.41    0.41</time>
   <time name="total">   21.07   21.08</time>
   <energy>
    <i name="e_fr_energy">   -629.48989919 </i>
    <i name="e_wo_entrp">   -629.37072672 </i>
    <i name="e_0_energy">   -629.43031296 </i>
   </energy>
  </scstep>
  <scstep>
   <time name="diag">    1.77    1.77</time>
   <time name="diis">   18.05   18.09</time>
   <time name="orth">    0.42    0.42</time>
   <time name="total">   20.52   20.56</time>
   <energy>
    <i name="e_fr_energy">   -629.48992888 </i>
    <i name="e_wo_entrp">   -629.37074439 </i>
    <i name="e_0_energy">   -629.43033664 </i>
   </energy>
  </scstep>
  <scstep>
   <time name="diag">    1.77    1.77</time>
   <time name="diis">   17.25   17.25</time>
   <time name="orth">    0.41    0.41</time>
   <time name="total">   19.71   19.72</time>
   <energy>
    <i name="e_fr_energy">   -629.48994700 </i>
    <i name="e_wo_entrp">   -629.37076404 </i>
    <i name="e_0_energy">   -629.43035552 </i>
   </energy>
  </scstep>
  <scstep>
   <time name="diag">    1.76    1.76</time>
   <time name="diis">   15.87   15.87</time>
   <time name="orth">    0.42    0.42</time>
   <time name="total">   18.33   18.35</time>
   <energy>
    <i name="e_fr_energy">   -629.48996046 </i>
    <i name="e_wo_entrp">   -629.37077940 </i>
    <i name="e_0_energy">   -629.43036993 </i>
   </energy>
  </scstep>
  <scstep>
   <time name="diag">    1.78    1.78</time>
   <time name="diis">   14.80   14.81</time>
   <time name="orth">    0.41    0.41</time>
   <time name="total">   17.03   17.04</time>
   <energy>
    <i name="alphaZ">   4046.51000781 </i>
    <i name="ewald"> -41282.18501883 </i>
    <i name="hartreedc">  -9258.28778336 </i>
    <i name="XCdc">   1726.82598659 </i>
    <i name="pawpsdc">  32976.92254011 </i>
    <i name="pawaedc"> -32306.58905064 </i>
    <i name="eentropy">     -0.11917758 </i>
    <i name="bandstr">  -5206.59500682 </i>
    <i name="atom">  48674.02753426 </i>
    <i name="e_fr_energy">   -629.48996845 </i>
    <i name="e_wo_entrp">   -629.37079087 </i>
    <i name="e_0_energy">   -629.43037966 </i>
   </energy>
  </scstep>
  <structure>
   <crystal>
    <varray name="basis" >
     <v>       8.71153325      -0.00524874      -0.00099491 </v>
     <v>      -0.00524403       8.72271482      -0.01151497 </v>
     <v>      -0.00101448      -0.01155301       8.67414650 </v>
    </varray>
    <i name="volume">    659.13154798 </i>
    <varray name="rec_basis" >
     <v>       0.11479040       0.00006903       0.00001352 </v>
     <v>       0.00006909       0.11464345       0.00015270 </v>
     <v>       0.00001326       0.00015220       0.11528532 </v>
    </varray>
   </crystal>
   <varray name="positions" >
    <v>       0.99975524       0.00036195       0.00982551 </v>
    <v>       0.24126777       0.00371693       0.24800397 </v>
    <v>       0.25834457       0.49203821       0.25034813 </v>
    <v>       0.50101615       0.49613572       0.00064134 </v>
    <v>       0.49819004       0.25887093       0.75494658 </v>
    <v>       0.00280029       0.49689218       0.49665572 </v>
    <v>       0.50181299       0.74030823       0.75123764 </v>
    <v>       0.00064336       0.24186811       0.25538380 </v>
    <v>       0.75888121       0.74434578       0.00190068 </v>
    <v>       0.00472408       0.25854714       0.74377135 </v>
    <v>       0.75684275       0.26178444       0.49191713 </v>
    <v>       0.99786447       0.74002589       0.75003737 </v>
    <v>       0.25560907       0.49727312       0.75135929 </v>
    <v>       0.26429146       0.26279492       0.99359194 </v>
    <v>       0.50540229       0.26033841       0.24214972 </v>
    <v>       0.76179530       0.99448545       0.24664057 </v>
    <v>       0.73390232       0.25761036       0.01163144 </v>
    <v>       0.23525608       0.73708955       0.00223464 </v>
    <v>       0.23665439       0.25076442       0.50704710 </v>
    <v>       0.25222217       0.24917851       0.24976156 </v>
    <v>       0.24428051       0.00289218       0.00840394 </v>
    <v>       0.99907474       0.24178440       0.00080191 </v>
    <v>       0.74547392       0.24413558       0.24577946 </v>
    <v>       0.75662279       0.00396331       0.00665107 </v>
    <v>       0.50024262       0.00862628       0.24839079 </v>
    <v>       0.00564093       0.49483627       0.25701004 </v>
    <v>       0.49993971       0.74556740       0.99310290 </v>
    <v>       0.99912517       0.00167663       0.75724792 </v>
    <v>       0.74629535       0.25086633       0.75150414 </v>
    <v>       0.75234350       0.00345643       0.49309735 </v>
    <v>       0.49893900       0.25344873       0.49912570 </v>
    <v>       0.50190471       0.00247377       0.75168644 </v>
    <v>       0.99859447       0.99971171       0.24744467 </v>
    <v>       0.49954497       0.25789770       0.00224450 </v>
    <v>       0.24430808       0.74913828       0.23947078 </v>
    <v>       0.25601519       0.50053787       0.00437258 </v>
    <v>       0.00504249       0.75514327       0.00024603 </v>
    <v>       0.75417269       0.75222253       0.25216159 </v>
    <v>       0.74362580       0.49313224       0.00082364 </v>
    <v>       0.49607939       0.49042688       0.24696792 </v>
    <v>       0.25307588       0.25321781       0.74954898 </v>
    <v>       0.24520535       0.00900677       0.49228086 </v>
    <v>       0.00426075       0.25439268       0.49995721 </v>
    <v>       0.25295752       0.74651618       0.76036462 </v>
    <v>       0.25019533       0.48825570       0.49554715 </v>
    <v>       0.99380490       0.74988375       0.49857981 </v>
    <v>       0.00049946       0.49878875       0.74415106 </v>
    <v>       0.74567050       0.74577898       0.75018666 </v>
    <v>       0.75491437       0.50006333       0.49800740 </v>
    <v>       0.50367649       0.74479264       0.50684853 </v>
    <v>       0.50107701       0.49921567       0.75207475 </v>
    <v>       0.49926128       0.00552398       0.00542498 </v>
    <v>      -0.00002026       0.49606954       0.00514689 </v>
    <v>       0.49851066       0.74354023       0.24688281 </v>
    <v>       0.24661798       0.00170500       0.75516924 </v>
    <v>       0.49672662       0.00532188       0.49481796 </v>
    <v>       0.75284130       0.99856733       0.75027523 </v>
    <v>       0.24793186       0.74698569       0.49819761 </v>
    <v>       0.99995849       0.76481903       0.24796384 </v>
    <v>       0.73333279       0.50165980       0.24600953 </v>
    <v>       0.00703688       0.00913575       0.48580966 </v>
    <v>       0.50471528       0.50105451       0.49789162 </v>
    <v>       0.74407993       0.50617590       0.75414944 </v>
    <v>       0.74912825       0.73316176       0.49909600 </v>
   </varray>
  </structure>
  <varray name="forces" >
   <v>      -0.01384913       0.10698579      -0.15862355 </v>
   <v>       0.08814450       0.05965148      -0.10806661 </v>
   <v>       0.05702858      -0.27299812       0.11917474 </v>
   <v>      -0.02798454       0.26297956      -0.08877460 </v>
   <v>       0.18429651      -0.22321519      -0.15763609 </v>
   <v>       0.13758081       0.01060613      -0.09982255 </v>
   <v>      -0.04715650       0.26317972       0.05015921 </v>
   <v>       0.01146710       0.30680164      -0.32920183 </v>
   <v>       0.00133104       0.20010760       0.04270336 </v>
   <v>      -0.23266318      -0.07724597       0.29528153 </v>
   <v>      -0.16615944      -0.12391051       0.07174731 </v>
   <v>      -0.00162908      -0.01115047      -0.23506293 </v>
   <v>      -0.00693885       0.08426701      -0.11192181 </v>
   <v>       0.13794521       0.01589906      -0.07689721 </v>
   <v>       0.27938337       0.05194171       0.06906433 </v>
   <v>       0.03558509      -0.11427703      -0.12321927 </v>
   <v>      -0.32422022      -0.24435448       0.40004367 </v>
   <v>      -0.00263773      -0.16773527       0.07356049 </v>
   <v>       0.00172415      -0.17731474       0.14482707 </v>
   <v>       0.10932274      -0.03701473      -0.05172280 </v>
   <v>       0.01525431       0.18010917       0.03982547 </v>
   <v>      -0.03245627      -0.11095005      -0.02384483 </v>
   <v>      -0.09639179      -0.09524764      -0.11928891 </v>
   <v>       0.03201376       0.08840822       0.04106431 </v>
   <v>       0.10810392       0.07048449       0.06707653 </v>
   <v>      -0.04087050       0.03018528       0.07684210 </v>
   <v>      -0.04120353       0.02142568      -0.09247927 </v>
   <v>       0.01123032       0.03528143      -0.01800989 </v>
   <v>       0.03702689       0.06930989      -0.00058294 </v>
   <v>       0.10304424       0.02908340      -0.03710101 </v>
   <v>       0.00146723       0.12238847      -0.03357836 </v>
   <v>      -0.01687329       0.07324568      -0.03521335 </v>
   <v>       0.11747557       0.19038349      -0.31566570 </v>
   <v>      -0.11915081       0.12299437      -0.09097014 </v>
   <v>      -0.03386873      -0.07526658      -0.04794345 </v>
   <v>       0.04889985       0.04238676       0.04501459 </v>
   <v>       0.08069557      -0.06974254      -0.00150117 </v>
   <v>      -0.02872667      -0.04371097       0.08651100 </v>
   <v>      -0.09112538      -0.09769195      -0.07067058 </v>
   <v>      -0.39723551       0.10684906      -0.13327771 </v>
   <v>       0.14166078      -0.05083183       0.06224530 </v>
   <v>       0.08167098      -0.01608981       0.06209476 </v>
   <v>      -0.06524242       0.22508564       0.03759493 </v>
   <v>       0.03271120       0.01188089       0.09046552 </v>
   <v>       0.05317694      -0.08195053      -0.01748718 </v>
   <v>      -0.06364847       0.18221658       0.00906912 </v>
   <v>      -0.02956496      -0.01383609      -0.00568077 </v>
   <v>      -0.08945323       0.14624763       0.02787718 </v>
   <v>       0.33440560      -0.13648144      -0.03651033 </v>
   <v>      -0.05747914       0.21237833       0.02638199 </v>
   <v>      -0.01499991       0.04324730       0.05554606 </v>
   <v>      -0.03865229      -0.32350487      -0.15857879 </v>
   <v>      -0.04146887      -0.22561559       0.05225766 </v>
   <v>      -0.14918844       0.33803416      -0.05635193 </v>
   <v>       0.04911721      -0.14872403       0.16455685 </v>
   <v>       0.09498337       0.06467967       0.06719487 </v>
   <v>      -0.01719880       0.07433971      -0.08976744 </v>
   <v>       0.06467371       0.07260799       0.00951230 </v>
   <v>       0.02175200      -0.29702538       0.24536957 </v>
   <v>       0.04707921      -0.52234502      -0.04382004 </v>
   <v>      -0.11507897       0.00423562       0.29658364 </v>
   <v>       0.01260101       0.02666009      -0.01509744 </v>
   <v>       0.05485384      -0.25389473       0.02284615 </v>
   <v>      -0.18458994       0.06555688       0.13187887 </v>
  </varray>
  <varray name="stress" >
   <v>     116.50847458      -0.29986038      -0.24174048 </v>
   <v>      -0.29986077     113.99958418      -0.58876238 </v>
   <v>      -0.24174298      -0.58876465     116.73190464 </v>
  </varray>
  <energy>
   <i name="e_fr_energy">   -629.48996845 </i>
   <i name="e_wo_entrp">   -629.43037966 </i>
   <i name="e_0_energy">     -0.11917758 </i>
  </energy>
  <time name="totalsc">  573.25  574.13</time>
 </calculation>
 <calculation>
  <scstep>
   <time name="dav">   23.58   23.61</time>
   <time name="total">   23.87   23.89</time>
   <energy>
    <i name="alphaZ">   3923.88232280 </i>
    <i name="ewald"> -40869.66647704 </i>
    <i name="hartreedc">  -9156.61615655 </i>
    <i name="XCdc">   1706.12466238 </i>
    <i name="pawpsdc">  32977.03712546 </i>
    <i name="pawaedc"> -32306.66638835 </i>
    <i name="eentropy">     -0.16632236 </i>
    <i name="bandstr">  -5581.42343651 </i>
    <i name="atom">  48674.02753426 </i>
    <i name="e_fr_energy">   -633.46713592 </i>
    <i name="e_wo_entrp">   -633.30081356 </i>
    <i name="e_0_energy">   -633.38397474 </i>
   </energy>
  </scstep>
  <scstep>
   <time name="diag">    1.76    1.76</time>
   <time name="diis">   17.76   17.77</time>
   <time name="orth">    0.41    0.41</time>
   <time name="total">   20.21   20.22</time>
   <energy>
    <i name="e_fr_energy">   -652.82855678 </i>
    <i name="e_wo_entrp">   -652.69231934 </i>
    <i name="e_0_energy">   -652.76043806 </i>
   </energy>
  </scstep>
  <scstep>
   <time name="diag">    1.78    1.78</time>
   <time name="diis">   17.91   17.92</time>
   <time name="orth">    0.42    0.42</time>
   <time name="total">   20.38   20.40</time>
   <energy>
    <i name="e_fr_energy">   -631.10705443 </i>
    <i name="e_wo_entrp">   -630.97876632 </i>
    <i name="e_0_energy">   -631.04291038 </i>
   </energy>
  </scstep>
  <scstep>
   <time name="diag">    1.77    1.77</time>
   <time name="diis">   19.95   19.99</time>
   <time name="orth">    0.41    0.41</time>
   <time name="total">   22.41   22.45</time>
   <energy>
    <i name="e_fr_energy">   -631.42566465 </i>
    <i name="e_wo_entrp">   -631.28815184 </i>
    <i name="e_0_energy">   -631.35690825 </i>
   </energy>
  </scstep>
  <scstep>
   <time name="diag">    1.76    1.76</time>
   <time name="diis">   20.14   20.19</time>
   <time name="orth">    0.42    0.42</time>
   <time name="total">   22.60   22.64</time>
   <energy>
    <i name="e_fr_energy">   -630.47151874 </i>
    <i name="e_wo_entrp">   -630.33174032 </i>
    <i name="e_0_energy">   -630.40162953 </i>
   </energy>
  </scstep>
  <scstep>
   <time name="diag">    1.77    1.77</time>
   <time name="diis">   20.01   20.03</time>
   <time name="orth">    0.44    0.44</time>
   <time name="total">   22.51   22.53</time>
   <energy>
    <i name="e_fr_energy">   -630.45746248 </i>
    <i name="e_wo_entrp">   -630.32670772 </i>
    <i name="e_0_energy">   -630.39208510 </i>
   </energy>
  </scstep>
  <scstep>
   <time name="diag">    1.78    1.78</time>
   <time name="diis">   18.71   18.77</time>
   <time name="orth">    0.41    0.41</time>
   <time name="total">   21.18   21.25</time>
   <energy>
    <i name="e_fr_energy">   -630.20480329 </i>
    <i name="e_wo_entrp">   -630.06973110 </i>
    <i name="e_0_energy">   -630.13726719 </i>
   </energy>
  </scstep>
  <scstep>
   <time name="diag">    1.77    1.77</time>
   <time name="diis">   20.26   20.31</time>
   <time name="orth">    0.41    0.41</time>
   <time name="total">   22.72   22.78</time>
   <energy>
    <i name="e_fr_energy">   -630.18664195 </i>
    <i name="e_wo_entrp">   -630.05540946 </i>
    <i name="e_0_energy">   -630.12102571 </i>
   </energy>
  </scstep>
  <scstep>
   <time name="diag">    1.77    1.77</time>
   <time name="diis">   21.88   22.01</time>
   <time name="orth">    0.41    0.41</time>
   <time name="total">   24.34   24.48</time>
   <energy>
    <i name="e_fr_energy">   -630.17481200 </i>
    <i name="e_wo_entrp">   -630.04438774 </i>
    <i name="e_0_energy">   -630.10959987 </i>
   </energy>
  </scstep>
  <scstep>
   <time name="diag">    1.77    1.77</time>
   <time name="diis">   21.46   21.48</time>
   <time name="orth">    0.42    0.42</time>
   <time name="total">   23.92   23.95</time>
   <energy>
    <i name="e_fr_energy">   -630.17353250 </i>
    <i name="e_wo_entrp">   -630.04290617 </i>
    <i name="e_0_energy">   -630.10821934 </i>
   </energy>
  </scstep>
  <scstep>
   <time name="diag">    1.77    1.78</time>
   <time name="diis">   21.93   22.00</time>
   <time name="orth">    0.43    0.43</time>
   <time name="total">   24.41   24.49</time>
   <energy>
    <i name="e_fr_energy">   -630.17451173 </i>
    <i name="e_wo_entrp">   -630.04368386 </i>
    <i name="e_0_energy">   -630.10909780 </i>
   </energy>
  </scstep>
  <scstep>
   <time name="diag">    1.76    1.76</time>
   <time name="diis">   21.99   22.04</time>
   <time name="orth">    0.41    0.41</time>
   <time name="total">   24.45   24.50</time>
   <energy>
    <i name="e_fr_energy">   -630.17564696 </i>
    <i name="e_wo_entrp">   -630.04469023 </i>
    <i name="e_0_energy">   -630.11016860 </i>
   </energy>
  </scstep>
  <scstep>
   <time name="diag">    1.76    1.76</time>
   <time name="diis">   22.11   22.15</time>
   <time name="orth">    0.41    0.41</time>
   <time name="total">   24.56   24.61</time>
   <energy>
    <i name="e_fr_energy">   -630.17780182 </i>
    <i name="e_wo_entrp">   -630.04687262 </i>
    <i name="e_0_energy">   -630.11233722 </i>
   </energy>
  </scstep>
  <scstep>
   <time name="diag">    1.76    1.76</time>
   <time name="diis">   21.99   22.13</time>
   <time name="orth">    0.41    0.41</time>
   <time name="total">   24.45   24.59</time>
   <energy>
    <i name="e_fr_energy">   -630.18025985 </i>
    <i name="e_wo_entrp">   -630.04916530 </i>
    <i name="e_0_energy">   -630.11471257 </i>
   </energy>
  </scstep>
  <scstep>
   <time name="diag">    1.76    1.76</time>
   <time name="diis">   22.04   22.10</time>
   <time name="orth">    0.42    0.42</time>
   <time name="total">   24.50   24.56</time>
   <energy>
    <i name="e_fr_energy">   -630.18163282 </i>
    <i name="e_wo_entrp">   -630.05050211 </i>
    <i name="e_0_energy">   -630.11606746 </i>
   </energy>
  </scstep>
  <scstep>
   <time name="diag">    1.76    1.76</time>
   <time name="diis">   21.51   21.54</time>
   <time name="orth">    0.41    0.41</time>
   <time name="total">   23.97   24.00</time>
   <energy>
    <i name="e_fr_energy">   -630.18193174 </i>
    <i name="e_wo_entrp">   -630.05086332 </i>
    <i name="e_0_energy">   -630.11639753 </i>
   </energy>
  </scstep>
  <scstep>
   <time name="diag">    1.76    1.76</time>
   <time name="diis">   19.78   19.87</time>
   <time name="orth">    0.41    0.41</time>
   <time name="total">   22.23   22.33</time>
   <energy>
    <i name="e_fr_energy">   -630.18210227 </i>
    <i name="e_wo_entrp">   -630.05106546 </i>
    <i name="e_0_energy">   -630.11658386 </i>
   </energy>
  </scstep>
  <scstep>
   <time name="diag">    1.76    1.76</time>
   <time name="diis">   19.32   19.35</time>
   <time name="orth">    0.41    0.41</time>
   <time name="total">   21.78   21.81</time>
   <energy>
    <i name="e_fr_energy">   -630.18221314 </i>
    <i name="e_wo_entrp">   -630.05120693 </i>
    <i name="e_0_energy">   -630.11671004 </i>
   </energy>
  </scstep>
  <scstep>
   <time name="diag">    1.76    1.76</time>
   <time name="diis">   18.66   18.67</time>
   <time name="orth">    0.41    0.41</time>
   <time name="total">   21.11   21.12</time>
   <energy>
    <i name="e_fr_energy">   -630.18227757 </i>
    <i name="e_wo_entrp">   -630.05127295 </i>
    <i name="e_0_energy">   -630.11677526 </i>
   </energy>
  </scstep>
  <scstep>
   <time name="diag">    1.76    1.76</time>
   <time name="diis">   18.38   18.42</time>
   <time name="orth">    0.41    0.41</time>
[...]
      </set>
     </set>
    </set>
   </array>
  </eigenvalues>
  <separator name="orbital magnetization" >
   <v name="MAGDIPOLOUT">      0.00000000      0.00000000      0.00000000</v>
  </separator>
  <dos>
   <i name="efermi">      8.74203686 </i>
   <total>
    <array>
     <dimension dim="1">gridpoints</dimension>
     <dimension dim="2">spin</dimension>
     <field>energy</field>
     <field>total</field>
     <field>integrated</field>
     <set>
      <set comment="spin 1">
       <r>   -59.7177     0.0000     0.0000 </r>
       <r>   -59.4695     0.0000     0.0000 </r>
       <r>   -59.2214     0.0000     0.0000 </r>
       <r>   -58.9733     0.0000     0.0000 </r>
       <r>   -58.7252     0.0000     0.0000 </r>
       <r>   -58.4770     0.0000     0.0000 </r>
       <r>   -58.2289     0.0000     0.0000 </r>
       <r>   -57.9808     0.0000     0.0000 </r>
       <r>   -57.7327     0.0000     0.0000 </r>
       <r>   -57.4845     0.0000     0.0000 </r>
       <r>   -57.2364     0.0000     0.0000 </r>
       <r>   -56.9883     0.0000     0.0000 </r>
       <r>   -56.7402     0.0000     0.0000 </r>
       <r>   -56.4920     0.1031     0.0256 </r>
       <r>   -56.2439    10.5530     2.6441 </r>
       <r>   -55.9958    34.5391    11.2141 </r>
       <r>   -55.7477     3.1673    12.0000 </r>
       <r>   -55.4995     0.0001    12.0000 </r>
       <r>   -55.2514     0.0000    12.0000 </r>
       <r>   -55.0033     0.0000    12.0000 </r>
       <r>   -54.7552     0.0000    12.0000 </r>
       <r>   -54.5070     0.0000    12.0000 </r>
       <r>   -54.2589     0.0000    12.0000 </r>
       <r>   -54.0108     0.0000    12.0000 </r>
       <r>   -53.7627     0.0000    12.0000 </r>
       <r>   -53.5145     0.0000    12.0000 </r>
       <r>   -53.2664     0.0000    12.0000 </r>
       <r>   -53.0183     0.0000    12.0000 </r>
       <r>   -52.7702     0.0000    12.0000 </r>
       <r>   -52.5220     0.0000    12.0000 </r>
       <r>   -52.2739     0.0000    12.0000 </r>
       <r>   -52.0258     0.0000    12.0000 </r>
       <r>   -51.7777     0.0000    12.0000 </r>
       <r>   -51.5295     0.0000    12.0000 </r>
       <r>   -51.2814     0.0000    12.0000 </r>
       <r>   -51.0333     0.0000    12.0000 </r>
       <r>   -50.7852     0.0000    12.0000 </r>
       <r>   -50.5370     0.0000    12.0000 </r>
       <r>   -50.2889     0.0000    12.0000 </r>
       <r>   -50.0408     0.0000    12.0000 </r>
       <r>   -49.7927     0.0000    12.0000 </r>
       <r>   -49.5445     0.0000    12.0000 </r>
       <r>   -49.2964     0.0000    12.0000 </r>
       <r>   -49.0483     0.7090    12.1759 </r>
       <r>   -48.8002    18.8444    16.8517 </r>
       <r>   -48.5520    25.0187    23.0595 </r>
       <r>   -48.3039    11.4118    25.8910 </r>
       <r>   -48.0558     0.4392    26.0000 </r>
       <r>   -47.8077     0.0000    26.0000 </r>
       <r>   -47.5595     0.1872    26.0465 </r>
       <r>   -47.3114    13.2562    29.3357 </r>
       <r>   -47.0633     6.8266    31.0295 </r>
       <r>   -46.8152    17.8505    35.4587 </r>
       <r>   -46.5670    10.1014    37.9651 </r>
       <r>   -46.3189     0.1407    38.0000 </r>
       <r>   -46.0708     0.0000    38.0000 </r>
       <r>   -45.8227     0.0000    38.0000 </r>
       <r>   -45.5745     0.0000    38.0000 </r>
       <r>   -45.3264     0.0000    38.0000 </r>
       <r>   -45.0783     0.0000    38.0000 </r>
       <r>   -44.8302     0.0000    38.0000 </r>
       <r>   -44.5820     0.0000    38.0000 </r>
       <r>   -44.3339     0.0000    38.0000 </r>
       <r>   -44.0858     0.0000    38.0000 </r>
       <r>   -43.8377     0.0000    38.0000 </r>
       <r>   -43.5895     0.0000    38.0000 </r>
       <r>   -43.3414     0.0000    38.0000 </r>
       <r>   -43.0933     0.0000    38.0000 </r>
       <r>   -42.8452     0.0000    38.0000 </r>
       <r>   -42.5970     0.0000    38.0000 </r>
       <r>   -42.3489     0.0000    38.0000 </r>
       <r>   -42.1008     0.0000    38.0000 </r>
       <r>   -41.8527     0.0000    38.0000 </r>
       <r>   -41.6045     0.0000    38.0000 </r>
       <r>   -41.3564     0.0000    38.0000 </r>
       <r>   -41.1083     0.0000    38.0000 </r>
       <r>   -40.8602     0.0000    38.0000 </r>
       <r>   -40.6120     0.8097    38.2009 </r>
       <r>   -40.3639     9.6717    40.6007 </r>
       <r>   -40.1158    13.4568    43.9397 </r>
       <r>   -39.8677    21.8853    49.3699 </r>
       <r>   -39.6195     8.2792    51.4242 </r>
       <r>   -39.3714     2.3203    52.0000 </r>
       <r>   -39.1233     0.0002    52.0000 </r>
       <r>   -38.8752     0.0000    52.0000 </r>
       <r>   -38.6270     0.0000    52.0000 </r>
       <r>   -38.3789     0.0000    52.0000 </r>
       <r>   -38.1308     0.0000    52.0000 </r>
       <r>   -37.8827     0.0000    52.0000 </r>
       <r>   -37.6345     0.0000    52.0000 </r>
       <r>   -37.3864     0.0000    52.0000 </r>
       <r>   -37.1383     0.0000    52.0000 </r>
       <r>   -36.8902     0.0000    52.0000 </r>
       <r>   -36.6420     0.0000    52.0000 </r>
       <r>   -36.3939     0.0000    52.0000 </r>
       <r>   -36.1458     0.0000    52.0000 </r>
       <r>   -35.8977     0.0000    52.0000 </r>
       <r>   -35.6495     0.0000    52.0000 </r>
       <r>   -35.4014     0.0000    52.0000 </r>
       <r>   -35.1533     0.0000    52.0000 </r>
       <r>   -34.9052     0.0000    52.0000 </r>
       <r>   -34.6570     0.0000    52.0000 </r>
       <r>   -34.4089     0.0000    52.0000 </r>
       <r>   -34.1608     0.0000    52.0000 </r>
       <r>   -33.9127     0.0000    52.0000 </r>
       <r>   -33.6645     0.0000    52.0000 </r>
       <r>   -33.4164     0.0000    52.0000 </r>
       <r>   -33.1683     0.0000    52.0000 </r>
       <r>   -32.9202     0.0000    52.0000 </r>
       <r>   -32.6720     0.0000    52.0000 </r>
       <r>   -32.4239     0.0000    52.0000 </r>
       <r>   -32.1758     0.0000    52.0000 </r>
       <r>   -31.9277     0.0000    52.0000 </r>
       <r>   -31.6795     0.0000    52.0000 </r>
       <r>   -31.4314     0.0000    52.0000 </r>
       <r>   -31.1833     0.0000    52.0000 </r>
       <r>   -30.9352     0.0000    52.0000 </r>
       <r>   -30.6870     0.0000    52.0000 </r>
       <r>   -30.4389     0.8300    52.2059 </r>
       <r>   -30.1908    38.1037    61.6604 </r>
       <r>   -29.9427    94.2739    85.0521 </r>
       <r>   -29.6945    11.8800    87.9999 </r>
       <r>   -29.4464     0.0006    88.0000 </r>
       <r>   -29.1983     0.0000    88.0000 </r>
       <r>   -28.9502     0.0000    88.0000 </r>
       <r>   -28.7020     0.0000    88.0000 </r>
       <r>   -28.4539     0.0000    88.0000 </r>
       <r>   -28.2058     0.0000    88.0000 </r>
       <r>   -27.9577     0.0000    88.0000 </r>
       <r>   -27.7095     0.0000    88.0000 </r>
       <r>   -27.4614     0.0000    88.0000 </r>
       <r>   -27.2133     0.0000    88.0000 </r>
       <r>   -26.9652     0.0000    88.0000 </r>
       <r>   -26.7170     0.0000    88.0000 </r>
       <r>   -26.4689     0.0000    88.0000 </r>
       <r>   -26.2208     0.0000    88.0000 </r>
       <r>   -25.9727     0.0000    88.0000 </r>
       <r>   -25.7245     0.0000    88.0000 </r>
       <r>   -25.4764     0.8081    88.2005 </r>
       <r>   -25.2283    43.2951    98.9431 </r>
       <r>   -24.9802    75.1450   117.5885 </r>
       <r>   -24.7320    45.0362   128.7631 </r>
       <r>   -24.4839     4.9848   129.9999 </r>
       <r>   -24.2358     0.0003   130.0000 </r>
       <r>   -23.9877     0.0004   130.0001 </r>
       <r>   -23.7395     3.0372   130.7537 </r>
       <r>   -23.4914    30.7457   138.3825 </r>
       <r>   -23.2433    28.1972   145.3789 </r>
       <r>   -22.9952    49.3923   157.6344 </r>
       <r>   -22.7470    30.6166   165.2311 </r>
       <r>   -22.4989     3.0986   165.9999 </r>
       <r>   -22.2508     0.0002   166.0000 </r>
       <r>   -22.0027     0.0000   166.0000 </r>
       <r>   -21.7545     0.0000   166.0000 </r>
       <r>   -21.5064     0.0000   166.0000 </r>
       <r>   -21.2583     0.0000   166.0000 </r>
       <r>   -21.0102     0.0000   166.0000 </r>
       <r>   -20.7620     0.0000   166.0000 </r>
       <r>   -20.5139     0.0000   166.0000 </r>
       <r>   -20.2658     0.0000   166.0000 </r>
       <r>   -20.0177     0.0000   166.0000 </r>
       <r>   -19.7695     0.0000   166.0000 </r>
       <r>   -19.5214     0.0000   166.0000 </r>
       <r>   -19.2733     0.0002   166.0000 </r>
       <r>   -19.0252     3.1468   166.7808 </r>
       <r>   -18.7770    25.8846   173.2035 </r>
       <r>   -18.5289    34.8666   181.8548 </r>
       <r>   -18.2808    44.9245   193.0017 </r>
       <r>   -18.0327    39.9476   202.9136 </r>
       <r>   -17.7845    19.1610   207.6680 </r>
       <r>   -17.5364     1.3381   208.0000 </r>
       <r>   -17.2883     0.0000   208.0000 </r>
       <r>   -17.0402     0.0000   208.0000 </r>
       <r>   -16.7920     0.0000   208.0000 </r>
       <r>   -16.5439     0.0000   208.0000 </r>
       <r>   -16.2958     0.0000   208.0000 </r>
       <r>   -16.0477     0.0000   208.0000 </r>
       <r>   -15.7995     0.0000   208.0000 </r>
       <r>   -15.5514     0.0000   208.0000 </r>
       <r>   -15.3033     0.0000   208.0000 </r>
       <r>   -15.0552     0.0000   208.0000 </r>
       <r>   -14.8070     0.0000   208.0000 </r>
       <r>   -14.5589     0.0000   208.0000 </r>
       <r>   -14.3108     0.0000   208.0000 </r>
       <r>   -14.0627     0.0000   208.0000 </r>
       <r>   -13.8145     0.0000   208.0000 </r>
       <r>   -13.5664     0.0000   208.0000 </r>
       <r>   -13.3183     0.0000   208.0000 </r>
       <r>   -13.0702     0.0000   208.0000 </r>
       <r>   -12.8220     0.0000   208.0000 </r>
       <r>   -12.5739     0.0000   208.0000 </r>
       <r>   -12.3258     0.0000   208.0000 </r>
       <r>   -12.0777     0.0000   208.0000 </r>
       <r>   -11.8295     0.0000   208.0000 </r>
       <r>   -11.5814     0.0000   208.0000 </r>
       <r>   -11.3333     0.0000   208.0000 </r>
       <r>   -11.0852     0.0000   208.0000 </r>
       <r>   -10.8370     0.0000   208.0000 </r>
       <r>   -10.5889     0.0000   208.0000 </r>
       <r>   -10.3408     0.0000   208.0000 </r>
       <r>   -10.0927     0.0000   208.0000 </r>
       <r>    -9.8445     0.0000   208.0000 </r>
       <r>    -9.5964     0.0000   208.0000 </r>
       <r>    -9.3483     0.0000   208.0000 </r>
       <r>    -9.1002     0.0000   208.0000 </r>
       <r>    -8.8520     0.0000   208.0000 </r>
       <r>    -8.6039     0.0000   208.0000 </r>
       <r>    -8.3558     0.0000   208.0000 </r>
       <r>    -8.1077     0.0000   208.0000 </r>
       <r>    -7.8595     0.0000   208.0000 </r>
       <r>    -7.6114     0.0002   208.0000 </r>
       <r>    -7.3633     1.1756   208.2917 </r>
       <r>    -7.1152     6.7363   209.9632 </r>
       <r>    -6.8670     0.4072   210.0642 </r>
       <r>    -6.6189     6.5192   211.6818 </r>
       <r>    -6.3708    12.6307   214.8158 </r>
       <r>    -6.1227    29.3242   222.0919 </r>
       <r>    -5.8745    27.0180   228.7957 </r>
       <r>    -5.6264    14.7944   232.4666 </r>
       <r>    -5.3783     5.0589   233.7218 </r>
       <r>    -5.1302     1.1198   233.9996 </r>
       <r>    -4.8820     0.0015   234.0000 </r>
       <r>    -4.6339     0.0000   234.0000 </r>
       <r>    -4.3858     0.0000   234.0000 </r>
       <r>    -4.1377     0.0000   234.0000 </r>
       <r>    -3.8895     0.1067   234.0265 </r>
       <r>    -3.6414     3.9291   235.0014 </r>
       <r>    -3.3933     6.1394   236.5247 </r>
       <r>    -3.1452    11.7567   239.4418 </r>
       <r>    -2.8970    17.3651   243.7506 </r>
       <r>    -2.6489    18.4911   248.3387 </r>
       <r>    -2.4008    22.1574   253.8365 </r>
       <r>    -2.1527    24.4454   259.9020 </r>
       <r>    -1.9045    22.5902   265.5072 </r>
       <r>    -1.6564    15.1138   269.2573 </r>
       <r>    -1.4083     9.0395   271.5002 </r>
       <r>    -1.1602     1.9440   271.9826 </r>
       <r>    -0.9120     0.0702   272.0000 </r>
       <r>    -0.6639     0.0000   272.0000 </r>
       <r>    -0.4158     0.0000   272.0000 </r>
       <r>    -0.1677     0.0000   272.0000 </r>
       <r>     0.0805     0.0000   272.0000 </r>
       <r>     0.3286     0.0000   272.0000 </r>
       <r>     0.5767     0.0000   272.0000 </r>
       <r>     0.8248     0.0001   272.0000 </r>
       <r>     1.0730     0.2920   272.0725 </r>
       <r>     1.3211     2.0600   272.5836 </r>
       <r>     1.5692     9.6250   274.9718 </r>
       <r>     1.8173    11.3138   277.7790 </r>
       <r>     2.0655    13.0010   281.0049 </r>
       <r>     2.3136    22.0233   286.4694 </r>
       <r>     2.5617    33.5454   294.7929 </r>
       <r>     2.8098    28.1525   301.7782 </r>
       <r>     3.0580    33.3037   310.0417 </r>
       <r>     3.3061    37.6268   319.3779 </r>
       <r>     3.5542    42.1698   329.8413 </r>
       <r>     3.8023    53.2322   343.0495 </r>
       <r>     4.0505    62.8763   358.6507 </r>
       <r>     4.2986    63.4742   374.4002 </r>
       <r>     4.5467    67.7875   391.2200 </r>
       <r>     4.7948    66.6257   407.7515 </r>
       <r>     5.0430    56.8356   421.8538 </r>
       <r>     5.2911    41.7657   432.2169 </r>
       <r>     5.5392    36.9284   441.3798 </r>
       <r>     5.7873    28.4492   448.4387 </r>
       <r>     6.0355    23.7242   454.3253 </r>
       <r>     6.2836    19.0728   459.0578 </r>
       <r>     6.5317    15.0104   462.7822 </r>
       <r>     6.7798     5.5411   464.1571 </r>
       <r>     7.0280    11.5898   467.0328 </r>
       <r>     7.2761    18.2943   471.5721 </r>
       <r>     7.5242    18.1593   476.0779 </r>
       <r>     7.7723    18.1100   480.5714 </r>
       <r>     8.0205    20.4096   485.6355 </r>
       <r>     8.2686    19.5418   490.4843 </r>
       <r>     8.5167    21.0551   495.7087 </r>
       <r>     8.7648    23.2015   501.4655 </r>
       <r>     9.0130    27.8011   508.3637 </r>
       <r>     9.2611    34.8857   517.0197 </r>
       <r>     9.5092    44.5991   528.0859 </r>
       <r>     9.7573    53.7897   541.4324 </r>
       <r>    10.0055    55.6971   555.2523 </r>
       <r>    10.2536    55.2969   568.9728 </r>
       <r>    10.5017    55.4969   582.7430 </r>
       <r>    10.7498    56.7705   596.8292 </r>
       <r>    10.9980    57.8994   611.1954 </r>
       <r>    11.2461    43.9707   622.1057 </r>
       <r>    11.4942     7.6119   623.9944 </r>
       <r>    11.7423     0.0227   624.0000 </r>
       <r>    11.9905     0.0000   624.0000 </r>
       <r>    12.2386     0.0000   624.0000 </r>
       <r>    12.4867     0.0000   624.0000 </r>
       <r>    12.7348     0.0000   624.0000 </r>
       <r>    12.9830     0.0000   624.0000 </r>
       <r>    13.2311     0.0000   624.0000 </r>
       <r>    13.4792     0.0000   624.0000 </r>
       <r>    13.7273     0.0000   624.0000 </r>
       <r>    13.9755     0.0000   624.0000 </r>
       <r>    14.2236     0.0000   624.0000 </r>
       <r>    14.4717     0.0000   624.0000 </r>
       <r>    14.7198     0.0000   624.0000 </r>
      </set>
     </set>
    </array>
   </total>
  </dos>
 </calculation>
 <structure name="finalpos" >
  <crystal>
   <varray name="basis" >
    <v>       8.83237864      -0.00343637      -0.00343012 </v>
    <v>      -0.00343219       8.83474550      -0.01337459 </v>
    <v>      -0.00344136      -0.01341223       8.78054083 </v>
   </varray>
   <i name="volume">    685.15976638 </i>
   <varray name="rec_basis" >
    <v>       0.11321982       0.00004405       0.00004444 </v>
    <v>       0.00004411       0.11318973       0.00017291 </v>
    <v>       0.00004430       0.00017243       0.11388848 </v>
   </varray>
  </crystal>
  <varray name="positions" >
   <v>       0.99918025       0.00216432       0.00970149 </v>
   <v>       0.24102798       0.00669782       0.24670854 </v>
   <v>       0.26069738       0.48645155       0.25259592 </v>
   <v>       0.50043631       0.49908584      -0.00227894 </v>
   <v>       0.50077464       0.25890974       0.75033367 </v>
   <v>       0.00683092       0.49572189       0.49505704 </v>
   <v>       0.50144201       0.74264727       0.75105409 </v>
   <v>       0.00150023       0.24425366       0.25419981 </v>
   <v>       0.76117147       0.74401143       0.00395429 </v>
   <v>       0.00220709       0.26036028       0.74546935 </v>
   <v>       0.75643991       0.26306940       0.49232763 </v>
   <v>       0.99686134       0.73697912       0.74559697 </v>
   <v>       0.25659421       0.49782411       0.74981931 </v>
   <v>       0.26731692       0.26439260       0.98887480 </v>
   <v>       0.51130842       0.26270694       0.24349475 </v>
   <v>       0.76693449       0.98899714       0.24579315 </v>
   <v>       0.72705400       0.25692793       0.02279074 </v>
   <v>       0.23160865       0.73035955       0.00457276 </v>
   <v>       0.23400284       0.24876103       0.51390753 </v>
   <v>       0.25124921       0.24904983       0.24928099 </v>
   <v>       0.24520468       0.00836808       0.00865485 </v>
   <v>       0.99518938       0.24069721       0.00118348 </v>
   <v>       0.74552828       0.23976028       0.24799036 </v>
   <v>       0.75665555       0.00395475       0.00741768 </v>
   <v>       0.50226703       0.00917126       0.24837060 </v>
   <v>       0.00496645       0.49373655       0.25716752 </v>
   <v>       0.50077712       0.74687176       0.99318216 </v>
   <v>       0.99913471       0.00257522       0.75755296 </v>
   <v>       0.74663367       0.25069897       0.74699028 </v>
   <v>       0.75402156       0.00534201       0.49276013 </v>
   <v>       0.50081500       0.25558398       0.49875919 </v>
   <v>       0.50244458       0.00505906       0.75148690 </v>
   <v>       0.00110590       0.00137924       0.24530694 </v>
   <v>       0.49738257       0.25886708       0.00174154 </v>
   <v>       0.24363306       0.74814208       0.23903407 </v>
   <v>       0.25492436       0.50019081       0.00406770 </v>
   <v>       0.00543477       0.75284449       0.00113029 </v>
   <v>       0.75407919       0.74777194       0.25320583 </v>
   <v>       0.74157496       0.48972264      -0.00306066 </v>
   <v>       0.49398600       0.49194737       0.24608305 </v>
   <v>       0.25369166       0.25295902       0.75089766 </v>
   <v>       0.24580461       0.00957967       0.49346259 </v>
   <v>       0.00312048       0.25641265       0.50066473 </v>
   <v>       0.25207884       0.74628811       0.76177935 </v>
   <v>       0.25227488       0.48747241       0.49619302 </v>
   <v>       0.99317742       0.75326378       0.49960593 </v>
   <v>      -0.00025687       0.49852000       0.74395200 </v>
   <v>       0.74515778       0.74698225       0.75201914 </v>
   <v>       0.75818379       0.50004736       0.49377655 </v>
   <v>       0.50351589       0.74847386       0.50651462 </v>
   <v>       0.50098952       0.50086852       0.75107879 </v>
   <v>       0.49885440       0.00373889       0.00509042 </v>
   <v>      -0.00196846       0.49323145       0.00571240 </v>
   <v>       0.49780122       0.74555488       0.24659803 </v>
   <v>       0.24538623       0.00065474       0.75773692 </v>
   <v>       0.49739604       0.00743354       0.49425453 </v>
   <v>       0.75415611       0.99850095       0.74936388 </v>
   <v>       0.24864580       0.74844539       0.49755896 </v>
   <v>      -0.00113988       0.76490584       0.25335749 </v>
   <v>       0.72923907       0.49009225       0.24303735 </v>
   <v>       0.00753524       0.01266547       0.48343048 </v>
   <v>       0.50628098       0.50446143       0.49877404 </v>
   <v>       0.74263361       0.50771841       0.75132619 </v>
   <v>       0.74704524       0.72967358       0.50153687 </v>
  </varray>
 </structure>
</modeling>
