HECN                                    
           1
     8.862562   -0.007422   -0.002901
    -0.007419    8.870574   -0.011979
    -0.002909   -0.011996    8.837040
   Ti   Nb   V    N    C    Zr   Mo
   7   6   6  13  19   7   6
Direct configuration=     1
   0.99999819  0.99935766  0.00983884
   0.24200228  0.00320288  0.24884767
   0.25739610  0.49437809  0.24971119
   0.50079572  0.49489993  0.00070046
   0.49761892  0.25891254  0.75454582
   0.00202165  0.49714132  0.49802212
   0.50219534  0.74046868  0.75024947
   0.00104348  0.24093056  0.25616769
   0.75749137  0.74459122  0.00156091
   0.00449397  0.25732101  0.74346121
   0.75623272  0.26036893  0.49288501
   0.99830326  0.74208753  0.75097779
   0.25553889  0.49673031  0.75163904
   0.26122682  0.26068568  0.99490871
   0.50302091  0.25909619  0.24345350
   0.75961612  0.99572673  0.24772086
   0.73829150  0.25740507  0.00783057
   0.23739505  0.73985491  0.00175434
   0.23907472  0.25133885  0.50515381
   0.25258610  0.24933213  0.25033281
   0.24291481  0.00143027  0.00950519
   0.99902410  0.24112384  0.00068443
   0.74557526  0.24384538  0.24595130
   0.75763371  0.00445625  0.00743876
   0.49997417  0.00942575  0.24850246
   0.00598328  0.49596331  0.25825236
   0.49884108  0.74417143  0.99188924
   0.99928457  0.00130078  0.75752374
   0.74545169  0.25145913  0.75229992
   0.75277173  0.00255166  0.49200050
   0.49784196  0.25369402  0.49901190
   0.50180534  0.00166410  0.75167401
   0.99817226  0.99878133  0.24704658
   0.50028153  0.25916328  0.00298362
   0.24325778  0.74965646  0.23787062
   0.25799464  0.50063316  0.00510622
   0.00550720  0.75762702  0.00048691
   0.75524723  0.75334773  0.25222006
   0.74194550  0.49290031  0.00064875
   0.49686731  0.48755415  0.24676039
   0.25331319  0.25406436  0.74912339
   0.24416809  0.01106379  0.49024234
   0.00536706  0.25463578  0.49966567
   0.25365604  0.74578982  0.76148570
   0.24882097  0.48682993  0.49492945
   0.99299087  0.74813612  0.49831271
   0.00040247  0.49897248  0.74207630
   0.74470174  0.74461473  0.74946903
   0.75438578  0.50066271  0.49872470
   0.50538919  0.74350206  0.50897692
   0.50097801  0.49945243  0.75261909
   0.49922962  0.00647042  0.00488684
   0.00025071  0.49710355  0.00448982
   0.49930791  0.74377801  0.24704884
   0.24730409  0.00248670  0.75435736
   0.49673424  0.00453588  0.49526531
   0.75227323  0.99850632  0.75082370
   0.24776271  0.74708204  0.49821777
   0.99968034  0.76382463  0.24741942
   0.73599645  0.50364639  0.24663260
   0.00628451  0.00732390  0.48724403
   0.50346425  0.50036617  0.49843746
   0.74472850  0.50596690  0.75325552
   0.75009245  0.73660595  0.49867793
HECN                                    
           1
     8.711533   -0.005249   -0.000995
    -0.005244    8.722715   -0.011515
    -0.001014   -0.011553    8.674147
   Ti   Nb   V    N    C    Zr   Mo
   7   6   6  13  19   7   6
Direct configuration=     2
   0.99975524  0.00036195  0.00982551
   0.24126777  0.00371693  0.24800397
   0.25834457  0.49203821  0.25034813
   0.50101615  0.49613572  0.00064134
   0.49819004  0.25887093  0.75494658
   0.00280029  0.49689218  0.49665572
   0.50181299  0.74030823  0.75123764
   0.00064336  0.24186811  0.25538380
   0.75888121  0.74434578  0.00190068
   0.00472408  0.25854714  0.74377135
   0.75684275  0.26178444  0.49191713
   0.99786447  0.74002589  0.75003737
   0.25560907  0.49727312  0.75135929
   0.26429146  0.26279492  0.99359194
   0.50540229  0.26033841  0.24214972
   0.76179530  0.99448545  0.24664057
   0.73390232  0.25761036  0.01163144
   0.23525608  0.73708955  0.00223464
   0.23665439  0.25076442  0.50704710
   0.25222217  0.24917851  0.24976156
   0.24428051  0.00289218  0.00840394
   0.99907474  0.24178440  0.00080191
   0.74547392  0.24413558  0.24577946
   0.75662279  0.00396331  0.00665107
   0.50024262  0.00862628  0.24839079
   0.00564093  0.49483627  0.25701004
   0.49993971  0.74556740  0.99310290
   0.99912517  0.00167663  0.75724792
   0.74629535  0.25086633  0.75150414
   0.75234350  0.00345643  0.49309735
   0.49893900  0.25344873  0.49912570
   0.50190471  0.00247377  0.75168644
   0.99859447  0.99971171  0.24744467
   0.49954497  0.25789770  0.00224450
   0.24430808  0.74913828  0.23947078
   0.25601519  0.50053787  0.00437258
   0.00504249  0.75514327  0.00024603
   0.75417269  0.75222253  0.25216159
   0.74362580  0.49313224  0.00082364
   0.49607939  0.49042688  0.24696792
   0.25307588  0.25321781  0.74954898
   0.24520535  0.00900677  0.49228086
   0.00426075  0.25439268  0.49995721
   0.25295752  0.74651618  0.76036462
   0.25019533  0.48825570  0.49554715
   0.99380490  0.74988375  0.49857981
   0.00049946  0.49878875  0.74415106
   0.74567050  0.74577898  0.75018666
   0.75491437  0.50006333  0.49800740
   0.50367649  0.74479264  0.50684853
   0.50107701  0.49921567  0.75207475
   0.49926128  0.00552398  0.00542498
  -0.00002026  0.49606954  0.00514689
   0.49851066  0.74354023  0.24688281
   0.24661798  0.00170500  0.75516924
   0.49672662  0.00532188  0.49481796
   0.75284130  0.99856733  0.75027523
   0.24793186  0.74698569  0.49819761
   0.99995849  0.76481903  0.24796384
   0.73333279  0.50165980  0.24600953
   0.00703688  0.00913575  0.48580966
   0.50471528  0.50105451  0.49789162
   0.74407993  0.50617590  0.75414944
   0.74912825  0.73316176  0.49909600
HECN                                    
           1
     8.799566   -0.006515   -0.002106
    -0.006512    8.808900   -0.011785
    -0.002119   -0.011811    8.769096
   Ti   Nb   V    N    C    Zr   Mo
   7   6   6  13  19   7   6
Direct configuration=     3
   0.99989944 -0.00023340  0.00983341
   0.24170330  0.00341210  0.24850490
   0.25778188  0.49342536  0.24996997
   0.50088560  0.49540321  0.00067650
   0.49785141  0.25889568  0.75470867
   0.00233835  0.49703995  0.49746723
   0.50203983  0.74040330  0.75065078
   0.00088066  0.24131229  0.25584927
   0.75805705  0.74449147  0.00169909
   0.00458784  0.25782036  0.74358723
   0.75648108  0.26094544  0.49249200
   0.99812426  0.74124789  0.75059573
   0.25556749  0.49695136  0.75152543
   0.26247427  0.26154503  0.99437431
   0.50399015  0.25960237  0.24292428
   0.76050275  0.99522153  0.24728234
   0.73650559  0.25748812  0.00937379
   0.23652415  0.73872848  0.00194910
   0.23808979  0.25110462  0.50592248
   0.25243789  0.24926951  0.25010074
   0.24347072  0.00202577  0.00905811
   0.99904482  0.24139285  0.00073216
   0.74553404  0.24396354  0.24588150
   0.75722210  0.00425536  0.00711869
   0.50008331  0.00910022  0.24845712
   0.00584363  0.49550428  0.25774771
   0.49928858  0.74474008  0.99238235
   0.99921971  0.00145381  0.75741169
   0.74579489  0.25121783  0.75197680
   0.75259770  0.00292006  0.49244596
   0.49828844  0.25359429  0.49905826
   0.50184590  0.00199384  0.75167909
   0.99834428  0.99916027  0.24720834
   0.49998148  0.25864779  0.00268330
   0.24368539  0.74944562  0.23852067
   0.25718889  0.50059407  0.00480799
   0.00531768  0.75661550  0.00038897
   0.75480972  0.75288937  0.25219615
   0.74262944  0.49299500  0.00072000
   0.49654705  0.48872390  0.24684463
   0.25321654  0.25371959  0.74929620
   0.24459023  0.01022629  0.49107041
   0.00491679  0.25453663  0.49978393
   0.25337170  0.74608550  0.76103028
   0.24938062  0.48741074  0.49518054
   0.99332246  0.74884792  0.49842133
   0.00044218  0.49889770  0.74291900
   0.74509628  0.74508900  0.74976065
   0.75460075  0.50041869  0.49843341
   0.50469202  0.74402736  0.50811225
   0.50101821  0.49935602  0.75239801
   0.49924244  0.00608502  0.00510540
   0.00014036  0.49668244  0.00475664
   0.49898337  0.74368107  0.24698130
   0.24702483  0.00216829  0.75468701
   0.49673119  0.00485595  0.49508363
   0.75250438  0.99853123  0.75060100
   0.24783154  0.74704283  0.49820960
   0.99979376  0.76422962  0.24764060
   0.73491197  0.50283701  0.24637916
   0.00659080  0.00806182  0.48666157
   0.50397345  0.50064665  0.49821593
   0.74446467  0.50605193  0.75361852
   0.74969959  0.73520325  0.49884755
HECN                                    
           1
     8.810117   -0.005487   -0.001038
    -0.005484    8.819535   -0.012229
    -0.001059   -0.012264    8.771265
   Ti   Nb   V    N    C    Zr   Mo
   7   6   6  13  19   7   6
Direct configuration=     4
   0.99969113  0.00069649  0.00952975
   0.24132476  0.00388715  0.24769723
   0.25858964  0.49123372  0.25065933
   0.50100292  0.49678884  0.00047481
   0.49859952  0.25842845  0.75471187
   0.00313767  0.49687242  0.49629940
   0.50167637  0.74079567  0.75146093
   0.00060092  0.24257660  0.25464649
   0.75907066  0.74470121  0.00201513
   0.00431849  0.25856454  0.74438398
   0.75661633  0.26175454  0.49191390
   0.99780032  0.73972624  0.74947488
   0.25558826  0.49751397  0.75111786
   0.26496291  0.26309279  0.99327451
   0.50630457  0.26056872  0.24210942
   0.76214572  0.99411971  0.24625102
   0.73270387  0.25715711  0.01293519
   0.23497624  0.73641624  0.00243246
   0.23633770  0.25033856  0.50756576
   0.25237038  0.24910571  0.24959632
   0.24447430  0.00338919  0.00833982
   0.99902867  0.24165110  0.00077325
   0.74523501  0.24403172  0.24547189
   0.75656860  0.00406729  0.00663925
   0.50046780  0.00866262  0.24849958
   0.00552770  0.49474770  0.25700746
   0.49997831  0.74576067  0.99306904
   0.99912197  0.00179294  0.75719127
   0.74645986  0.25092795  0.75139634
   0.75247808  0.00362036  0.49318968
   0.49907016  0.25364066  0.49907959
   0.50188607  0.00270032  0.75161858
   0.99885694  0.00016114  0.24691430
   0.49924842  0.25799073  0.00199156
   0.24437677  0.74894614  0.23957205
   0.25588179  0.50061850  0.00436818
   0.00514321  0.75473361  0.00022074
   0.75399549  0.75202842  0.25231235
   0.74364144  0.49298958  0.00070582
   0.49524405  0.49098978  0.24673825
   0.25331116  0.25302364  0.74970922
   0.24548763  0.00874067  0.49263263
   0.00403328  0.25477588  0.50006634
   0.25295253  0.74662509  0.76039729
   0.25044065  0.48827823  0.49557933
   0.99379403  0.75041310  0.49862815
   0.00045818  0.49875142  0.74438066
   0.74561599  0.74619916  0.75031829
   0.75558539  0.49977316  0.49785626
   0.50335973  0.74533545  0.50664678
   0.50107300  0.49927556  0.75212854
   0.49919012  0.00479175  0.00519007
  -0.00012324  0.49552774  0.00531943
   0.49812396  0.74411829  0.24676213
   0.24663987  0.00132628  0.75557889
   0.49689979  0.00553160  0.49489737
   0.75287340  0.99870878  0.75004387
   0.24809790  0.74712240  0.49820913
   0.00004116  0.76439239  0.24851348
   0.73305099  0.50038510  0.24584472
   0.00692370  0.00938836  0.48615867
   0.50492064  0.50120299  0.49777449
   0.74410870  0.50573085  0.75431534
   0.74863906  0.73279368  0.49940039
HECN                                    
           1
     8.820365   -0.004489   -0.000001
    -0.004486    8.829863   -0.012661
    -0.000029   -0.012704    8.773373
   Ti   Nb   V    N    C    Zr   Mo
   7   6   6  13  19   7   6
Direct configuration=     5
   0.99948897  0.00159858  0.00923495
   0.24095758  0.00434799  0.24691302
   0.25937342  0.48910757  0.25132851
   0.50111660  0.49813302  0.00027902
   0.49932532  0.25797510  0.75471487
   0.00391324  0.49670974  0.49516530
   0.50132364  0.74117639  0.75224767
   0.00032953  0.24380308  0.25347865
   0.76005390  0.74490457  0.00232190
   0.00405702  0.25928653  0.74515772
   0.75674752  0.26253940  0.49135257
   0.99748636  0.73825007  0.74838647
   0.25560839  0.49805973  0.75072213
   0.26737710  0.26459393  0.99220636
   0.50854978  0.26150586  0.24131795
   0.76373982  0.99305060  0.24524933
   0.72901545  0.25683661  0.01639383
   0.23347482  0.73417335  0.00290189
   0.23463788  0.24959570  0.50916159
   0.25230497  0.24894678  0.24910651
   0.24544781  0.00471168  0.00764229
   0.99901297  0.24190164  0.00081316
   0.74494496  0.24409786  0.24507419
   0.75593472  0.00388490  0.00617377
   0.50084085  0.00823807  0.24854074
   0.00522140  0.49401374  0.25628867
   0.50064723  0.74675069  0.99373580
   0.99902713  0.00212193  0.75697726
   0.74710505  0.25064664  0.75083260
   0.75236186  0.00429977  0.49391190
   0.49982849  0.25368557  0.49910021
   0.50192497  0.00338567  0.75155986
   0.99935419  0.00113200  0.24662877
   0.49853744  0.25735337  0.00131992
   0.24504742  0.74846157  0.24059287
   0.25461383  0.50064232  0.00394127
   0.00497419  0.75290802  0.00005732
   0.75320568  0.75119333  0.25242523
   0.74462319  0.49298420  0.00069193
   0.49397977  0.49318803  0.24663521
   0.25340299  0.25234851  0.75011022
   0.24635818  0.00729945  0.49414941
   0.00317613  0.25500808  0.50034067
   0.25254590  0.74714856  0.75978271
   0.25146885  0.48911968  0.49596647
   0.99425129  0.75193141  0.49882899
   0.00047356  0.49860959  0.74579997
   0.74611997  0.74727609  0.75085976
   0.75654073  0.49914680  0.49729569
   0.50206729  0.74660451  0.50522400
   0.50112619  0.49919749  0.75186687
   0.49913951  0.00353718  0.00527223
  -0.00037889  0.49440764  0.00586589
   0.49729022  0.74454252  0.24654943
   0.24626641  0.00050955  0.75644493
   0.49706330  0.00618701  0.49471653
   0.75323144  0.99888095  0.74950285
   0.24835629  0.74719956  0.49820864
   0.00028105  0.76455030  0.24936105
   0.73124600  0.49800670  0.24532587
   0.00724656  0.01067517  0.48567036
   0.50583949  0.50174256  0.49734575
   0.74376333  0.50541944  0.75499201
   0.74761046  0.73045632  0.49993722
HECN                                    
           1
     8.839967   -0.003602   -0.002767
    -0.003601    8.836276   -0.013489
    -0.002781   -0.013521    8.784830
   Ti   Nb   V    N    C    Zr   Mo
   7   6   6  13  19   7   6
Direct configuration=     6
   0.99938365  0.00178973  0.00927966
   0.24048716  0.00503611  0.24686421
   0.26019106  0.48760135  0.25212129
   0.50100974  0.49871690 -0.00047351
   0.50003846  0.25810128  0.75350952
   0.00491747  0.49616942  0.49495183
   0.50167894  0.74142224  0.75160451
   0.00075999  0.24371056  0.25378247
   0.76124093  0.74515852  0.00291514
   0.00343296  0.25993553  0.74538384
   0.75641477  0.26274587  0.49127171
   0.99705072  0.73715778  0.74691298
   0.25638580  0.49751454  0.75010940
   0.26831006  0.26511892  0.99111559
   0.51006372  0.26328624  0.24156542
   0.76507562  0.99175419  0.24459780
   0.72692239  0.25627311  0.01902319
   0.23221679  0.73235362  0.00366674
   0.23367849  0.24867792  0.51083286
   0.25209237  0.24877693  0.24885863
   0.24552493  0.00583632  0.00822440
   0.99861909  0.24127603  0.00086307
   0.74480694  0.24344155  0.24538540
   0.75624195  0.00425126  0.00639941
   0.50141030  0.00860305  0.24838748
   0.00508387  0.49390851  0.25696564
   0.50085746  0.74678171  0.99315738
   0.99911798  0.00240409  0.75702740
   0.74724863  0.25080372  0.75011873
   0.75308844  0.00489867  0.49365427
   0.50057725  0.25451123  0.49891143
   0.50211838  0.00382708  0.75161942
   0.99996472  0.00140168  0.24572141
   0.49802807  0.25830550  0.00135817
   0.24366379  0.74824627  0.23960334
   0.25546004  0.50073469  0.00397543
   0.00528486  0.75286889  0.00044141
   0.75378318  0.75060696  0.25319451
   0.74314298  0.49223339  0.00026231
   0.49359245  0.49246448  0.24622730
   0.25379332  0.25281510  0.75046814
   0.24551976  0.00818476  0.49370782
   0.00281968  0.25598867  0.50024113
   0.25238859  0.74641768  0.76075514
   0.25165708  0.48784470  0.49607007
   0.99293955  0.75267881  0.49891228
   0.00030432  0.49843311  0.74508389
   0.74553697  0.74664796  0.75095212
   0.75770740  0.49910392  0.49684473
   0.50311326  0.74678206  0.50597701
   0.50120887  0.49969968  0.75179165
   0.49882994  0.00276670  0.00508012
  -0.00075273  0.49373443  0.00604105
   0.49726232  0.74589124  0.24659934
   0.24576153  0.00040403  0.75729028
   0.49733746  0.00702388  0.49441769
   0.75371896  0.99935948  0.74907385
   0.24838088  0.74764556  0.49797555
   0.00000633  0.76538655  0.25088823
   0.72936310  0.49563966  0.24479405
   0.00787495  0.01137005  0.48470127
   0.50617147  0.50267863  0.49725367
   0.74333670  0.50583889  0.75523203
   0.74675455  0.72895928  0.50045841
HECN                                    
           1
     8.845119   -0.003369   -0.003494
    -0.003369    8.837962   -0.013707
    -0.003505   -0.013736    8.787841
   Ti   Nb   V    N    C    Zr   Mo
   7   6   6  13  19   7   6
Direct configuration=     7
   0.99935603  0.00183994  0.00929139
   0.24036377  0.00521686  0.24685137
   0.26040561  0.48720573  0.25232943
   0.50098164  0.49887025 -0.00067105
   0.50022540  0.25813437  0.75319317
   0.00518085  0.49602746  0.49489586
   0.50177207  0.74148679  0.75143572
   0.00087292  0.24368625  0.25386226
   0.76155229  0.74522520  0.00307097
   0.00326930  0.26010602  0.74544316
   0.75632748  0.26280011  0.49125045
   0.99693637  0.73687086  0.74652611
   0.25658965  0.49737131  0.74994860
   0.26855465  0.26525676  0.99082934
   0.51046076  0.26375384  0.24163055
   0.76542594  0.99141362  0.24442684
   0.72637367  0.25612523  0.01971323
   0.23188697  0.73187571  0.00386737
   0.23342704  0.24843692  0.51127147
   0.25203659  0.24873232  0.24879353
   0.24554518  0.00613173  0.00837724
   0.99851581  0.24111172  0.00087612
   0.74477078  0.24326917  0.24546706
   0.75632253  0.00434748  0.00645867
   0.50155962  0.00869890  0.24834731
   0.00504786  0.49388090  0.25714334
   0.50091255  0.74678984  0.99300557
   0.99914180  0.00247821  0.75704058
   0.74728622  0.25084496  0.74993135
   0.75327896  0.00505595  0.49358671
   0.50077358  0.25472807  0.49886196
   0.50216909  0.00394301  0.75163509
   0.00012476  0.00147248  0.24548328
   0.49789445  0.25855560  0.00136819
   0.24330084  0.74818974  0.23934346
   0.25568197  0.50075893  0.00398447
   0.00536637  0.75285861  0.00054227
   0.75393472  0.75045295  0.25339648
   0.74275476  0.49203621  0.00014939
   0.49349085  0.49227443  0.24612018
   0.25389570  0.25293765  0.75056214
   0.24529982  0.00841730  0.49359185
   0.00272616  0.25624624  0.50021499
   0.25234743  0.74622574  0.76101038
   0.25170649  0.48750981  0.49609725
   0.99259551  0.75287515  0.49893405
   0.00025988  0.49838674  0.74489589
   0.74538409  0.74648300  0.75097630
   0.75801335  0.49909261  0.49672645
   0.50338765  0.74682869  0.50617477
   0.50123054  0.49983159  0.75177192
   0.49874875  0.00256433  0.00502964
  -0.00085074  0.49355762  0.00608698
   0.49725498  0.74624550  0.24661248
   0.24562919  0.00037634  0.75751215
   0.49740932  0.00724367  0.49433929
   0.75384677  0.99948514  0.74896128
   0.24838729  0.74776270  0.49791438
  -0.00006562  0.76560624  0.25128913
   0.72886930  0.49501797  0.24465424
   0.00803966  0.01155253  0.48444695
   0.50625850  0.50292448  0.49722955
   0.74322482  0.50594908  0.75529501
   0.74653015  0.72856611  0.50059512
HECN                                    
           1
     8.821896   -0.003778   -0.003506
    -0.003776    8.818714   -0.014488
    -0.003519   -0.014526    8.759765
   Ti   Nb   V    N    C    Zr   Mo
   7   6   6  13  19   7   6
Direct configuration=     8
   0.99935704  0.00208255  0.00920636
   0.24022322  0.00602240  0.24670826
   0.26073706  0.48643404  0.25288925
   0.50068825  0.49961413 -0.00149998
   0.50081895  0.25850248  0.75180665
   0.00618252  0.49565994  0.49486389
   0.50210773  0.74175411  0.75082194
   0.00148769  0.24367821  0.25420612
   0.76205752  0.74534086  0.00362029
   0.00275619  0.26041195  0.74531771
   0.75607898  0.26309627  0.49139864
   0.99653190  0.73633047  0.74539772
   0.25724834  0.49728248  0.74948849
   0.26840704  0.26506916  0.98996038
   0.51101908  0.26380843  0.24242221
   0.76618115  0.99060778  0.24415537
   0.72579795  0.25570763  0.02104714
   0.23110062  0.73075271  0.00427219
   0.23302387  0.24816742  0.51266065
   0.25166450  0.24876169  0.24878769
   0.24535975  0.00699058  0.00886395
   0.99794141  0.24065073  0.00103451
   0.74513871  0.24237598  0.24647844
   0.75676358  0.00468219  0.00676064
   0.50207700  0.00913522  0.24823101
   0.00498808  0.49379539  0.25760170
   0.50107159  0.74672253  0.99276550
   0.99924673  0.00258293  0.75713569
   0.74718251  0.25095761  0.74909558
   0.75378269  0.00553262  0.49310166
   0.50134764  0.25534641  0.49867159
   0.50240268  0.00432418  0.75147923
   0.00051540  0.00156059  0.24507595
   0.49756440  0.25898575  0.00160667
   0.24273473  0.74808404  0.23872625
   0.25603488  0.50060653  0.00411412
   0.00555331  0.75308733  0.00082064
   0.75423565  0.74990855  0.25377785
   0.74162414  0.49113433 -0.00035473
   0.49329554  0.49250746  0.24590505
   0.25404935  0.25289528  0.75077918
   0.24528617  0.00933724  0.49316604
   0.00258420  0.25640931  0.50033814
   0.25213671  0.74562182  0.76178689
   0.25191674  0.48652687  0.49608215
   0.99209031  0.75321525  0.49910649
   0.00012451  0.49832904  0.74410096
   0.74506680  0.74623992  0.75136047
   0.75833747  0.49905865  0.49610433
   0.50380242  0.74736788  0.50676114
   0.50144461  0.50026087  0.75136555
   0.49853609  0.00279724  0.00479683
  -0.00122497  0.49320775  0.00624469
   0.49738154  0.74617008  0.24670285
   0.24530769  0.00051485  0.75789737
   0.49715113  0.00779941  0.49415641
   0.75423780  0.99931604  0.74891920
   0.24834798  0.74797017  0.49766695
  -0.00068031  0.76596756  0.25288079
   0.72834407  0.49326026  0.24431660
   0.00793444  0.01209983  0.48342110
   0.50631634  0.50344269  0.49756979
   0.74274056  0.50621005  0.75506458
   0.74643904  0.72792697  0.50098993
HECN                                    
           1
     8.833043   -0.003582   -0.003500
    -0.003580    8.827953   -0.014113
    -0.003512   -0.014147    8.773242
   Ti   Nb   V    N    C    Zr   Mo
   7   6   6  13  19   7   6
Direct configuration=     9
   0.99935655  0.00196585  0.00924730
   0.24029085  0.00563490  0.24677714
   0.26057756  0.48680523  0.25261971
   0.50082943  0.49925633 -0.00110084
   0.50053328  0.25832545  0.75247430
   0.00570045  0.49583672  0.49487930
   0.50194618  0.74162553  0.75111749
   0.00119182  0.24368204  0.25404053
   0.76181436  0.74528518  0.00335576
   0.00300313  0.26026480  0.74537810
   0.75619857  0.26295380  0.49132727
   0.99672658  0.73659048  0.74594112
   0.25693133  0.49732521  0.74971006
   0.26847808  0.26515945  0.99037883
   0.51075037  0.26378212  0.24204099
   0.76581771  0.99099543  0.24428613
   0.72607504  0.25590847  0.02040482
   0.23147909  0.73129293  0.00407730
   0.23321791  0.24829701  0.51199171
   0.25184358  0.24874757  0.24879050
   0.24544897  0.00657741  0.00862954
   0.99821786  0.24087250  0.00095826
   0.74496166  0.24280560  0.24599145
   0.75655131  0.00452115  0.00661521
   0.50182799  0.00892532  0.24828699
   0.00501685  0.49383650  0.25738098
   0.50099505  0.74675492  0.99288111
   0.99919623  0.00253254  0.75708988
   0.74723242  0.25090346  0.74949804
   0.75354025  0.00530333  0.49333521
   0.50107135  0.25504895  0.49876323
   0.50229025  0.00414082  0.75155426
   0.00032739  0.00151821  0.24527209
   0.49772324  0.25877882  0.00149182
   0.24300719  0.74813492  0.23902347
   0.25586504  0.50067983  0.00405169
   0.00546334  0.75297729  0.00068658
   0.75409083  0.75017041  0.25359423
   0.74216829  0.49156823 -0.00011193
   0.49338953  0.49239537  0.24600863
   0.25397540  0.25291565  0.75067467
   0.24529272  0.00889472  0.49337105
   0.00265252  0.25633086  0.50027883
   0.25223814  0.74591231  0.76141299
   0.25181558  0.48699972  0.49608946
   0.99233344  0.75305165  0.49902344
   0.00018966  0.49835684  0.74448376
   0.74521950  0.74635684  0.75117548
   0.75818148  0.49907501  0.49640391
   0.50360279  0.74710846  0.50647875
   0.50134157  0.50005438  0.75156122
   0.49863843  0.00268521  0.00490893
  -0.00104485  0.49337605  0.00616876
   0.49732063  0.74620635  0.24665934
   0.24546242  0.00044821  0.75771186
   0.49727538  0.00753208  0.49424445
   0.75404961  0.99939738  0.74893947
   0.24836689  0.74787038  0.49778609
  -0.00038449  0.76579369  0.25211431
   0.72859689  0.49410584  0.24447927
   0.00798507  0.01183660  0.48391507
   0.50628849  0.50319338  0.49740592
   0.74297361  0.50608454  0.75517553
   0.74648290  0.72823441  0.50079984
HECN                                    
           1
     8.833310   -0.004132   -0.002248
    -0.004130    8.835553   -0.014355
    -0.002267   -0.014396    8.774912
   Ti   Nb   V    N    C    Zr   Mo
   7   6   6  13  19   7   6
Direct configuration=    10
   0.99942456  0.00220470  0.00906519
   0.24052928  0.00619145  0.24659676
   0.26050887  0.48657663  0.25282854
   0.50053834  0.49980597 -0.00168902
   0.50092987  0.25857375  0.75144861
   0.00639405  0.49566361  0.49490233
   0.50206063  0.74197967  0.75085653
   0.00168529  0.24390867  0.25408711
   0.76169560  0.74532924  0.00370692
   0.00264432  0.26027689  0.74533612
   0.75605068  0.26311211  0.49164264
   0.99652809  0.73650861  0.74534870
   0.25720725  0.49745629  0.74950288
   0.26785865  0.26467364  0.98986724
   0.51067185  0.26303924  0.24290228
   0.76602070  0.99070219  0.24432735
   0.72637177  0.25559526  0.02077354
   0.23131424  0.73088099  0.00416015
   0.23331041  0.24837933  0.51281792
   0.25160246  0.24883954  0.24889899
   0.24523505  0.00712430  0.00880526
   0.99768333  0.24068701  0.00109648
   0.74545689  0.24197378  0.24692525
   0.75683900  0.00471609  0.00681345
   0.50219345  0.00928085  0.24823660
   0.00496784  0.49381582  0.25752792
   0.50104309  0.74673012  0.99292866
   0.99926232  0.00250800  0.75715323
   0.74704026  0.25092829  0.74892169
   0.75373931  0.00551622  0.49288955
   0.50126982  0.25534851  0.49862068
   0.50243703  0.00442129  0.75130669
   0.00050853  0.00157734  0.24505393
   0.49752304  0.25883294  0.00165400
   0.24313649  0.74809037  0.23891040
   0.25566344  0.50042794  0.00415780
   0.00550482  0.75310779  0.00081748
   0.75400512  0.74971896  0.25366599
   0.74174681  0.49088731 -0.00056384
   0.49330873  0.49287685  0.24592629
   0.25397930  0.25264293  0.75076425
   0.24570347  0.00934174  0.49322068
   0.00263527  0.25612062  0.50049883
   0.25208485  0.74575240  0.76176700
   0.25204128  0.48666724  0.49603985
   0.99253246  0.75315964  0.49921841
   0.00009620  0.49835535  0.74406074
   0.74516667  0.74654714  0.75162258
   0.75815182  0.49907230  0.49589589
   0.50343641  0.74781767  0.50665412
   0.50147153  0.50031207  0.75117669
   0.49859369  0.00318630  0.00473134
  -0.00135327  0.49326936  0.00619810
   0.49742836  0.74578137  0.24668942
   0.24538880  0.00046798  0.75770736
   0.49700734  0.00771623  0.49423410
   0.75420529  0.99896398  0.74905222
   0.24836643  0.74797780  0.49767401
  -0.00094129  0.76555761  0.25322310
   0.72901164  0.49307714  0.24427376
   0.00750115  0.01212838  0.48353638
   0.50612495  0.50338620  0.49784296
   0.74273034  0.50609092  0.75470390
   0.74672671  0.72834075  0.50098675
HECN                                    
           1
     8.833354   -0.004223   -0.002042
    -0.004221    8.836805   -0.014395
    -0.002062   -0.014437    8.775187
   Ti   Nb   V    N    C    Zr   Mo
   7   6   6  13  19   7   6
Direct configuration=    11
   0.99943577  0.00224400  0.00903520
   0.24056856  0.00628303  0.24656705
   0.26049755  0.48653901  0.25286292
   0.50049042  0.49989640 -0.00178586
   0.50099521  0.25861461  0.75127971
   0.00650827  0.49563514  0.49490610
   0.50207949  0.74203795  0.75081356
   0.00176655  0.24394596  0.25409477
   0.76167604  0.74533649  0.00376474
   0.00258523  0.26027887  0.74532921
   0.75602632  0.26313816  0.49169457
   0.99649541  0.73649514  0.74525116
   0.25725269  0.49747786  0.74946876
   0.26775664  0.26459369  0.98978301
   0.51065889  0.26291700  0.24304409
   0.76605412  0.99065394  0.24433414
   0.72642062  0.25554373  0.02083425
   0.23128708  0.73081321  0.00417380
   0.23332562  0.24839289  0.51295396
   0.25156276  0.24885467  0.24891686
   0.24519982  0.00721429  0.00883420
   0.99759529  0.24065648  0.00111925
   0.74553841  0.24183691  0.24707899
   0.75688637  0.00474817  0.00684608
   0.50225364  0.00933935  0.24822830
   0.00495977  0.49381241  0.25755212
   0.50105100  0.74672604  0.99293649
   0.99927321  0.00250396  0.75716366
   0.74700863  0.25093238  0.74882680
   0.75377211  0.00555125  0.49281616
   0.50130251  0.25539780  0.49859721
   0.50246122  0.00446744  0.75126593
   0.00053837  0.00158707  0.24501800
   0.49749007  0.25884185  0.00168070
   0.24315779  0.74808304  0.23889178
   0.25563024  0.50038650  0.00417528
   0.00551165  0.75312926  0.00083903
   0.75399100  0.74964467  0.25367780
   0.74167740  0.49077526 -0.00063824
   0.49329543  0.49295607  0.24591273
   0.25397994  0.25259805  0.75077900
   0.24577113  0.00941530  0.49319592
   0.00263243  0.25608603  0.50053505
   0.25205959  0.74572609  0.76182529
   0.25207844  0.48661253  0.49603167
   0.99256523  0.75317741  0.49925051
   0.00008081  0.49835510  0.74399109
   0.74515797  0.74657845  0.75169620
   0.75814695  0.49907185  0.49581224
   0.50340901  0.74793437  0.50668300
   0.50149294  0.50035447  0.75111337
   0.49858633  0.00326876  0.00470210
  -0.00140406  0.49325181  0.00620294
   0.49744610  0.74571144  0.24669437
   0.24537668  0.00047123  0.75770662
   0.49696320  0.00774652  0.49423240
   0.75423092  0.99889267  0.74907077
   0.24836636  0.74799547  0.49765556
  -0.00103302  0.76551876  0.25340568
   0.72907994  0.49290787  0.24423991
   0.00742147  0.01217639  0.48347403
   0.50609801  0.50341792  0.49791492
   0.74269029  0.50609196  0.75462624
   0.74676686  0.72835825  0.50101752
HECN                                    
           1
     8.833433   -0.003520   -0.002122
    -0.003518    8.833349   -0.013576
    -0.002142   -0.013611    8.780082
   Ti   Nb   V    N    C    Zr   Mo
   7   6   6  13  19   7   6
Direct configuration=    12
   0.99950071  0.00234458  0.00911270
   0.24078749  0.00643524  0.24657736
   0.26048191  0.48655202  0.25273006