       N       E                     dE             d eps       ncg     rms          rms(c)
DAV:   1     0.496932474884E+04    0.49693E+04   -0.19679E+05  8064   0.149E+03
DAV:   2     0.658521425761E+02   -0.49035E+04   -0.47003E+04  8400   0.510E+02
DAV:   3    -0.708610015640E+03   -0.77446E+03   -0.73006E+03 12696   0.177E+02
DAV:   4    -0.778969287036E+03   -0.70359E+02   -0.68152E+02 14328   0.572E+01
DAV:   5    -0.783331462555E+03   -0.43622E+01   -0.42781E+01 14640   0.131E+01    0.745E+01
RMM:   6    -0.956983817329E+03   -0.17365E+03   -0.27882E+03 11352   0.157E+02    0.120E+02
RMM:   7    -0.648635340902E+03    0.30835E+03   -0.32431E+02 12054   0.436E+01    0.375E+01
RMM:   8    -0.658464283965E+03   -0.98289E+01   -0.66009E+01 13143   0.166E+01    0.406E+01
RMM:   9    -0.650472415290E+03    0.79919E+01   -0.15927E+01 11151   0.127E+01    0.301E+01
RMM:  10    -0.644015188284E+03    0.64572E+01   -0.99031E+00 13166   0.626E+00    0.140E+01
RMM:  11    -0.645551535766E+03   -0.15363E+01   -0.41952E+00 12848   0.464E+00    0.237E+01
RMM:  12    -0.642803516489E+03    0.27480E+01   -0.42442E+00 12474   0.467E+00    0.932E+00
RMM:  13    -0.643440057965E+03   -0.63654E+00   -0.19025E+00 12568   0.309E+00    0.144E+01
RMM:  14    -0.642682930104E+03    0.75713E+00   -0.20348E+00 12932   0.296E+00    0.508E+00
RMM:  15    -0.643088489646E+03   -0.40556E+00   -0.71916E-01 12824   0.170E+00    0.113E+01
RMM:  16    -0.642539886977E+03    0.54860E+00   -0.39295E-01 12672   0.149E+00    0.273E+00
RMM:  17    -0.642610278147E+03   -0.70391E-01   -0.45392E-01 13228   0.986E-01    0.574E+00
RMM:  18    -0.642503149985E+03    0.10713E+00   -0.30541E-01 13309   0.930E-01    0.130E+00
RMM:  19    -0.642517112009E+03   -0.13962E-01   -0.14782E-01 13238   0.427E-01    0.134E+00
RMM:  20    -0.642502837969E+03    0.14274E-01   -0.54192E-02 13162   0.286E-01    0.703E-01
RMM:  21    -0.642499257497E+03    0.35805E-02   -0.45222E-02 12528   0.273E-01    0.249E-01
RMM:  22    -0.642499393641E+03   -0.13614E-03   -0.10804E-02 12401   0.175E-01    0.102E-01
RMM:  23    -0.642499525035E+03   -0.13139E-03   -0.40450E-03 12063   0.678E-02    0.891E-02
RMM:  24    -0.642499611890E+03   -0.86855E-04   -0.18694E-03 11094   0.444E-02    0.404E-02
RMM:  25    -0.642499674794E+03   -0.62905E-04   -0.93485E-04  9393   0.265E-02    0.278E-02
RMM:  26    -0.642499708675E+03   -0.33881E-04   -0.48143E-04  7309   0.209E-02    0.138E-02
RMM:  27    -0.642499732340E+03   -0.23665E-04   -0.27908E-04  6353   0.167E-02    0.831E-03
RMM:  28    -0.642499745857E+03   -0.13516E-04   -0.14827E-04  5855   0.155E-02    0.316E-03
RMM:  29    -0.642499753836E+03   -0.79798E-05   -0.84604E-05  5596   0.123E-02
   1 F= -.64249975E+03 E0= -.64239557E+03  d E =-.642500E+03
       N       E                     dE             d eps       ncg     rms          rms(c)
DAV:   1    -0.651852063619E+03   -0.93523E+01   -0.90915E+02 10656   0.134E+02    0.336E+01
RMM:   2    -0.771742191403E+03   -0.11989E+03   -0.43925E+02  9624   0.843E+01    0.874E+01
RMM:   3    -0.646536787333E+03    0.12521E+03   -0.61068E+01 10498   0.310E+01    0.156E+01
RMM:   4    -0.647556264747E+03   -0.10195E+01   -0.93235E+00 12459   0.909E+00    0.210E+01
RMM:   5    -0.645126513102E+03    0.24298E+01   -0.60328E+00 11439   0.639E+00    0.118E+01
RMM:   6    -0.646249664340E+03   -0.11232E+01   -0.24592E+00 10903   0.495E+00    0.199E+01
RMM:   7    -0.644370255368E+03    0.18794E+01   -0.17974E+00 11354   0.390E+00    0.724E+00
RMM:   8    -0.644898384640E+03   -0.52813E+00   -0.80033E-01 10931   0.298E+00    0.130E+01
RMM:   9    -0.644044205398E+03    0.85418E+00   -0.40136E-01 11382   0.223E+00    0.190E+00
RMM:  10    -0.644066109185E+03   -0.21904E-01   -0.32900E-01 13581   0.892E-01    0.282E+00
RMM:  11    -0.644043689061E+03    0.22420E-01   -0.10617E-01 13035   0.670E-01    0.147E+00
RMM:  12    -0.644046545307E+03   -0.28562E-02   -0.61195E-02 13504   0.411E-01    0.127E+00
RMM:  13    -0.644049682122E+03   -0.31368E-02   -0.26876E-02 12813   0.362E-01    0.135E+00
RMM:  14    -0.644046484250E+03    0.31979E-02   -0.20391E-02 13523   0.262E-01    0.420E-01
RMM:  15    -0.644048323891E+03   -0.18396E-02   -0.14179E-02 13443   0.158E-01    0.217E-01
RMM:  16    -0.644049263205E+03   -0.93931E-03   -0.85743E-03 13594   0.125E-01    0.153E-01
RMM:  17    -0.644049396029E+03   -0.13282E-03   -0.36681E-03 12869   0.798E-02    0.819E-02
RMM:  18    -0.644049478134E+03   -0.82104E-04   -0.15024E-03 11444   0.525E-02    0.513E-02
RMM:  19    -0.644049500133E+03   -0.21999E-04   -0.63848E-04 11531   0.366E-02    0.219E-02
RMM:  20    -0.644049515004E+03   -0.14872E-04   -0.26301E-04 10657   0.247E-02    0.139E-02
RMM:  21    -0.644049519074E+03   -0.40695E-05   -0.95149E-05  9032   0.198E-02
   2 F= -.64404952E+03 E0= -.64395917E+03  d E =-.154977E+01
       N       E                     dE             d eps       ncg     rms          rms(c)
DAV:   1    -0.645548238834E+03   -0.14987E+01   -0.91126E+01 11808   0.414E+01    0.141E+01
RMM:   2    -0.677003032338E+03   -0.31455E+02   -0.20147E+01 11253   0.144E+01    0.496E+01
RMM:   3    -0.645618925551E+03    0.31384E+02   -0.10698E+01 10352   0.143E+01    0.133E+01
RMM:   4    -0.644964298079E+03    0.65463E+00   -0.20142E+00 12622   0.380E+00    0.729E+00
RMM:   5    -0.644716639320E+03    0.24766E+00   -0.67069E-01 11375   0.232E+00    0.609E+00
RMM:   6    -0.644668176727E+03    0.48463E-01   -0.28620E-01 11169   0.165E+00    0.571E+00
RMM:   7    -0.644583425647E+03    0.84751E-01   -0.24128E-01 12039   0.123E+00    0.430E+00
RMM:   8    -0.644546558884E+03    0.36867E-01   -0.92501E-02 11412   0.939E-01    0.312E+00
RMM:   9    -0.644504601333E+03    0.41958E-01   -0.69215E-02 12522   0.655E-01    0.123E+00
RMM:  10    -0.644508838970E+03   -0.42376E-02   -0.28973E-02 12550   0.398E-01    0.157E+00
RMM:  11    -0.644500979564E+03    0.78594E-02   -0.14772E-02 12530   0.296E-01    0.568E-01
RMM:  12    -0.644501198772E+03   -0.21921E-03   -0.94130E-03 12437   0.174E-01    0.518E-01
RMM:  13    -0.644500544616E+03    0.65416E-03   -0.45543E-03 12754   0.114E-01    0.184E-01
RMM:  14    -0.644501057531E+03   -0.51292E-03   -0.28809E-03 12765   0.750E-02    0.131E-01
RMM:  15    -0.644501360385E+03   -0.30285E-03   -0.17921E-03 12466   0.703E-02    0.976E-02
RMM:  16    -0.644501412233E+03   -0.51849E-04   -0.10426E-03 11516   0.450E-02    0.660E-02
RMM:  17    -0.644501422875E+03   -0.10642E-04   -0.40913E-04 10696   0.321E-02    0.234E-02
RMM:  18    -0.644501435924E+03   -0.13049E-04   -0.18757E-04  9802   0.242E-02    0.170E-02
RMM:  19    -0.644501441599E+03   -0.56754E-05   -0.92290E-05  9299   0.186E-02
   3 F= -.64450144E+03 E0= -.64440683E+03  d E =-.200169E+01
       N       E                     dE             d eps       ncg     rms          rms(c)
DAV:   1    -0.644674170380E+03   -0.17273E+00   -0.57917E+02 10560   0.106E+02    0.246E+01
RMM:   2    -0.728919112618E+03   -0.84245E+02   -0.99399E+01 12390   0.264E+01    0.619E+01
RMM:   3    -0.650817761189E+03    0.78101E+02   -0.28813E+01 10217   0.214E+01    0.234E+01
RMM:   4    -0.647459282560E+03    0.33585E+01   -0.77765E+00 12556   0.646E+00    0.160E+01
RMM:   5    -0.646865570108E+03    0.59371E+00   -0.26729E+00 10436   0.532E+00    0.158E+01
RMM:   6    -0.645715179841E+03    0.11504E+01   -0.19141E+00 10852   0.410E+00    0.778E+00
RMM:   7    -0.645719148461E+03   -0.39686E-02   -0.88964E-01 11583   0.213E+00    0.956E+00
RMM:   8    -0.645342851409E+03    0.37630E+00   -0.33695E-01 11099   0.183E+00    0.328E+00
RMM:   9    -0.645501110050E+03   -0.15826E+00   -0.39512E-01 12280   0.154E+00    0.727E+00
RMM:  10    -0.645282795268E+03    0.21831E+00   -0.14376E-01 11365   0.126E+00    0.206E+00
RMM:  11    -0.645268565754E+03    0.14230E-01   -0.12253E-01 13550   0.620E-01    0.110E+00
RMM:  12    -0.645277453555E+03   -0.88878E-02   -0.45600E-02 13077   0.428E-01    0.161E+00
RMM:  13    -0.645268388888E+03    0.90647E-02   -0.25835E-02 13267   0.326E-01    0.663E-01
RMM:  14    -0.645269247015E+03   -0.85813E-03   -0.14369E-02 13272   0.186E-01    0.545E-01
RMM:  15    -0.645269650943E+03   -0.40393E-03   -0.77596E-03 13177   0.145E-01    0.274E-01
RMM:  16    -0.645270288505E+03   -0.63756E-03   -0.52254E-03 13049   0.116E-01    0.172E-01
RMM:  17    -0.645270326924E+03   -0.38419E-04   -0.27344E-03 12045   0.634E-02    0.126E-01
RMM:  18    -0.645270323226E+03    0.36978E-05   -0.11855E-03 11530   0.489E-02    0.366E-02
RMM:  19    -0.645270361350E+03   -0.38124E-04   -0.57436E-04 10718   0.313E-02    0.240E-02
RMM:  20    -0.645270367486E+03   -0.61357E-05   -0.14534E-04  9532   0.222E-02    0.123E-02
RMM:  21    -0.645270374811E+03   -0.73252E-05   -0.90384E-05  9074   0.186E-02
   4 F= -.64527037E+03 E0= -.64518123E+03  d E =-.768933E+00
       N       E                     dE             d eps       ncg     rms          rms(c)
DAV:   1    -0.645314379067E+03   -0.44012E-01   -0.42296E+01 10704   0.297E+01    0.658E+00
RMM:   2    -0.655661054377E+03   -0.10347E+02   -0.15047E+01 10040   0.141E+01    0.350E+01
RMM:   3    -0.645605496166E+03    0.10056E+02   -0.35327E+00 10071   0.782E+00    0.613E+00
RMM:   4    -0.645466922054E+03    0.13857E+00   -0.50154E-01 12126   0.199E+00    0.337E+00
RMM:   5    -0.645456171020E+03    0.10751E-01   -0.16381E-01 12147   0.890E-01    0.350E+00
RMM:   6    -0.645405784405E+03    0.50387E-01   -0.51762E-02 10743   0.749E-01    0.157E+00
RMM:   7    -0.645412734998E+03   -0.69506E-02   -0.48114E-02 11723   0.559E-01    0.245E+00
RMM:   8    -0.645397513878E+03    0.15221E-01   -0.29150E-02 11180   0.536E-01    0.161E+00
RMM:   9    -0.645391462533E+03    0.60513E-02   -0.23603E-02 12268   0.409E-01    0.121E+00
RMM:  10    -0.645386614132E+03    0.48484E-02   -0.86564E-03 11715   0.247E-01    0.582E-01
RMM:  11    -0.645386525444E+03    0.88687E-04   -0.73382E-03 12516   0.147E-01    0.487E-01
RMM:  12    -0.645385844458E+03    0.68099E-03   -0.26391E-03 11073   0.112E-01    0.229E-01
RMM:  13    -0.645385776336E+03    0.68122E-04   -0.17085E-03 12284   0.624E-02    0.996E-02
RMM:  14    -0.645385951165E+03   -0.17483E-03   -0.91850E-04 12138   0.449E-02    0.695E-02
RMM:  15    -0.645386034428E+03   -0.83263E-04   -0.45157E-04 11543   0.324E-02    0.448E-02
RMM:  16    -0.645386050546E+03   -0.16119E-04   -0.24208E-04 11018   0.238E-02    0.170E-02
RMM:  17    -0.645386054523E+03   -0.39762E-05   -0.82240E-05  8791   0.178E-02
   5 F= -.64538605E+03 E0= -.64529470E+03  d E =-.884613E+00
       N       E                     dE             d eps       ncg     rms          rms(c)
DAV:   1    -0.643403398236E+03    0.19827E+01   -0.12173E+02  8400   0.652E+01    0.240E+00
RMM:   2    -0.645835397766E+03   -0.24320E+01   -0.24716E+01 12823   0.128E+01    0.487E+00
RMM:   3    -0.645954842054E+03   -0.11944E+00   -0.14289E+00 12197   0.343E+00    0.592E+00
RMM:   4    -0.645867622761E+03    0.87219E-01   -0.33064E-01 12071   0.144E+00    0.318E+00
RMM:   5    -0.645810799660E+03    0.56823E-01   -0.10067E-01 11361   0.836E-01    0.139E+00
RMM:   6    -0.645812263881E+03   -0.14642E-02   -0.63915E-02 12566   0.443E-01    0.168E+00
RMM:   7    -0.645799686789E+03    0.12577E-01   -0.32092E-02 12583   0.361E-01    0.936E-01
RMM:   8    -0.645810364500E+03   -0.10678E-01   -0.33466E-02 11583   0.472E-01    0.205E+00
RMM:   9    -0.645792340239E+03    0.18024E-01   -0.19740E-02 11199   0.385E-01    0.672E-01
RMM:  10    -0.645793694798E+03   -0.13546E-02   -0.10856E-02 11040   0.218E-01    0.831E-01
RMM:  11    -0.645790642208E+03    0.30526E-02   -0.48725E-03 10788   0.185E-01    0.215E-01
RMM:  12    -0.645791291204E+03   -0.64900E-03   -0.37899E-03 11562   0.113E-01    0.415E-01
RMM:  13    -0.645790580252E+03    0.71095E-03   -0.14733E-03  9804   0.958E-02    0.124E-01
RMM:  14    -0.645790571487E+03    0.87646E-05   -0.98741E-04 10165   0.423E-02    0.326E-02
RMM:  15    -0.645790597626E+03   -0.26139E-04   -0.39351E-04  8939   0.282E-02    0.202E-02
RMM:  16    -0.645790601957E+03   -0.43302E-05   -0.13361E-04  7992   0.193E-02    0.107E-02
RMM:  17    -0.645790604438E+03   -0.24818E-05   -0.53319E-05  5929   0.168E-02
   6 F= -.64579060E+03 E0= -.64570861E+03  d E =-.404550E+00
       N       E                     dE             d eps       ncg     rms          rms(c)
DAV:   1    -0.644513660920E+03    0.12769E+01   -0.71265E+01  8496   0.499E+01    0.181E+00
RMM:   2    -0.645845180830E+03   -0.13315E+01   -0.13691E+01 12734   0.967E+00    0.309E+00
RMM:   3    -0.646004698619E+03   -0.15952E+00   -0.10905E+00 12378   0.320E+00    0.496E+00
RMM:   4    -0.645912760104E+03    0.91939E-01   -0.16553E-01 11994   0.124E+00    0.131E+00
RMM:   5    -0.645909480384E+03    0.32797E-02   -0.85147E-02 12585   0.577E-01    0.113E+00
RMM:   6    -0.645908390996E+03    0.10894E-02   -0.24300E-02 12402   0.324E-01    0.126E+00
RMM:   7    -0.645902674205E+03    0.57168E-02   -0.15076E-02 12285   0.281E-01    0.832E-01
RMM:   8    -0.645904699939E+03   -0.20257E-02   -0.21514E-02 11774   0.362E-01    0.121E+00
RMM:   9    -0.645897338534E+03    0.73614E-02   -0.90500E-03 10861   0.271E-01    0.395E-01
RMM:  10    -0.645899273307E+03   -0.19348E-02   -0.58847E-03 10709   0.174E-01    0.731E-01
RMM:  11    -0.645896721435E+03    0.25519E-02   -0.25920E-03 10078   0.141E-01    0.110E-01
RMM:  12    -0.645896870396E+03   -0.14896E-03   -0.21718E-03 11179   0.687E-02    0.180E-01
RMM:  13    -0.645896832068E+03    0.38328E-04   -0.74432E-04  9567   0.634E-02    0.133E-01
RMM:  14    -0.645896764914E+03    0.67154E-04   -0.37615E-04  9242   0.346E-02    0.271E-02
RMM:  15    -0.645896779085E+03   -0.14171E-04   -0.21810E-04  8247   0.215E-02    0.157E-02
RMM:  16    -0.645896781811E+03   -0.27258E-05   -0.78991E-05  6450   0.169E-02
   7 F= -.64589678E+03 E0= -.64582182E+03  d E =-.510727E+00
       N       E                     dE             d eps       ncg     rms          rms(c)
DAV:   1    -0.643561040266E+03    0.23357E+01   -0.13242E+02  8400   0.663E+01    0.244E+00
RMM:   2    -0.646383946205E+03   -0.28229E+01   -0.27168E+01 12829   0.133E+01    0.716E+00
RMM:   3    -0.646205830151E+03    0.17812E+00   -0.14221E+00 11825   0.338E+00    0.368E+00
RMM:   4    -0.646257336764E+03   -0.51507E-01   -0.38172E-01 11959   0.139E+00    0.474E+00
RMM:   5    -0.646162024780E+03    0.95312E-01   -0.98007E-02 10834   0.929E-01    0.192E+00
RMM:   6    -0.646149895562E+03    0.12129E-01   -0.74400E-02 12148   0.487E-01    0.110E+00
RMM:   7    -0.646148526656E+03    0.13689E-02   -0.44660E-02 12300   0.391E-01    0.146E+00
RMM:   8    -0.646144574883E+03    0.39518E-02   -0.21617E-02 10530   0.453E-01    0.135E+00
RMM:   9    -0.646141022942E+03    0.35519E-02   -0.26683E-02 11581   0.374E-01    0.113E+00
RMM:  10    -0.646134958994E+03    0.60639E-02   -0.91948E-03 10391   0.253E-01    0.288E-01
RMM:  11    -0.646134813153E+03    0.14584E-03   -0.61456E-03 11889   0.120E-01    0.145E-01
RMM:  12    -0.646135369651E+03   -0.55650E-03   -0.23242E-03 10758   0.916E-02    0.338E-01
RMM:  13    -0.646134819785E+03    0.54987E-03   -0.92801E-04  9315   0.747E-02    0.608E-02
RMM:  14    -0.646134848943E+03   -0.29158E-04   -0.65466E-04  9555   0.337E-02    0.301E-02
RMM:  15    -0.646134858820E+03   -0.98764E-05   -0.24035E-04  7680   0.245E-02    0.153E-02
RMM:  16    -0.646134863319E+03   -0.44992E-05   -0.90171E-05  6414   0.184E-02
   8 F= -.64613486E+03 E0= -.64606929E+03  d E =-.238082E+00
       N       E                     dE             d eps       ncg     rms          rms(c)
DAV:   1    -0.646041767482E+03    0.93091E-01   -0.54547E+00  9240   0.136E+01    0.476E-01
RMM:   2    -0.646143311453E+03   -0.10154E+00   -0.99319E-01 12645   0.265E+00    0.130E+00
RMM:   3    -0.646146540582E+03   -0.32291E-02   -0.85750E-02 12202   0.889E-01    0.862E-01
RMM:   4    -0.646144985972E+03    0.15546E-02   -0.12914E-02 11806   0.313E-01    0.508E-01
RMM:   5    -0.646144139616E+03    0.84636E-03   -0.57137E-03 10969   0.159E-01    0.275E-01
RMM:   6    -0.646144164580E+03   -0.24963E-04   -0.17430E-03 10735   0.960E-02    0.311E-01
RMM:   7    -0.646143789128E+03    0.37545E-03   -0.12487E-03 10713   0.895E-02    0.229E-01
RMM:   8    -0.646143905587E+03   -0.11646E-03   -0.10508E-03  9815   0.972E-02    0.308E-01
RMM:   9    -0.646143441231E+03    0.46436E-03   -0.92148E-04 10514   0.772E-02    0.105E-01
RMM:  10    -0.646143464638E+03   -0.23406E-04   -0.36564E-04  8326   0.503E-02    0.110E-01
RMM:  11    -0.646143394940E+03    0.69697E-04   -0.15444E-04  7028   0.323E-02    0.220E-02
RMM:  12    -0.646143411531E+03   -0.16590E-04   -0.91240E-05  6145   0.215E-02    0.545E-02
RMM:  13    -0.646143398978E+03    0.12552E-04   -0.39757E-05  5534   0.219E-02    0.134E-02
RMM:  14    -0.646143400972E+03   -0.19938E-05   -0.35214E-05  5530   0.129E-02
   9 F= -.64614340E+03 E0= -.64607937E+03  d E =-.246619E+00
       N       E                     dE             d eps       ncg     rms          rms(c)
DAV:   1    -0.645333020706E+03    0.81038E+00   -0.64127E+01  8568   0.384E+01    0.251E+00
RMM:   2    -0.646914359637E+03   -0.15813E+01   -0.10338E+01 12993   0.819E+00    0.106E+01
RMM:   3    -0.646390185246E+03    0.52417E+00   -0.91560E-01 10674   0.357E+00    0.432E+00
RMM:   4    -0.646341826835E+03    0.48358E-01   -0.29442E-01 12380   0.141E+00    0.264E+00
RMM:   5    -0.646314748898E+03    0.27078E-01   -0.11206E-01 12547   0.734E-01    0.172E+00
RMM:   6    -0.646303839315E+03    0.10910E-01   -0.38775E-02 11498   0.491E-01    0.104E+00
RMM:   7    -0.646303553665E+03    0.28565E-03   -0.36582E-02 12903   0.367E-01    0.118E+00
RMM:   8    -0.646299200097E+03    0.43536E-02   -0.14123E-02 10980   0.386E-01    0.883E-01
RMM:   9    -0.646295136575E+03    0.40635E-02   -0.12149E-02 13010   0.242E-01    0.433E-01
RMM:  10    -0.646295684910E+03   -0.54834E-03   -0.52678E-03 11460   0.160E-01    0.526E-01
RMM:  11    -0.646295013288E+03    0.67162E-03   -0.28193E-03 11417   0.119E-01    0.325E-01
RMM:  12    -0.646294667894E+03    0.34539E-03   -0.17336E-03 11090   0.841E-02    0.124E-01
RMM:  13    -0.646294653406E+03    0.14487E-04   -0.86531E-04 11526   0.416E-02    0.492E-02
RMM:  14    -0.646294674439E+03   -0.21032E-04   -0.40829E-04 10604   0.264E-02    0.295E-02
RMM:  15    -0.646294682979E+03   -0.85403E-05   -0.14499E-04  9515   0.200E-02    0.159E-02
RMM:  16    -0.646294683559E+03   -0.57999E-06   -0.55253E-05  6617   0.180E-02
  10 F= -.64629468E+03 E0= -.64623370E+03  d E =-.151283E+00
       N       E                     dE             d eps       ncg     rms          rms(c)
DAV:   1    -0.646104106828E+03    0.19058E+00   -0.13335E+01  8400   0.176E+01    0.117E+00
RMM:   2    -0.646464871454E+03   -0.36076E+00   -0.23520E+00 13021   0.381E+00    0.512E+00
RMM:   3    -0.646333808144E+03    0.13106E+00   -0.17060E-01 10573   0.153E+00    0.205E+00
RMM:   4    -0.646322812813E+03    0.10995E-01   -0.60600E-02 12214   0.607E-01    0.123E+00
RMM:   5    -0.646316655806E+03    0.61570E-02   -0.22033E-02 12516   0.318E-01    0.781E-01
RMM:   6    -0.646314228624E+03    0.24272E-02   -0.81728E-03 10998   0.225E-01    0.452E-01
RMM:   7    -0.646314132539E+03    0.96085E-04   -0.78586E-03 12891   0.176E-01    0.507E-01
RMM:   8    -0.646313520307E+03    0.61223E-03   -0.31796E-03 11041   0.182E-01    0.429E-01
RMM:   9    -0.646312483640E+03    0.10367E-02   -0.25375E-03 12635   0.116E-01    0.183E-01
RMM:  10    -0.646312600159E+03   -0.11652E-03   -0.11718E-03 10980   0.715E-02    0.219E-01
RMM:  11    -0.646312475159E+03    0.12500E-03   -0.57403E-04 10782   0.485E-02    0.131E-01
RMM:  12    -0.646312424582E+03    0.50577E-04   -0.28909E-04  9825   0.387E-02    0.672E-02
RMM:  13    -0.646312415046E+03    0.95358E-05   -0.19929E-04  9830   0.224E-02    0.221E-02
RMM:  14    -0.646312418685E+03   -0.36389E-05   -0.92737E-05  6770   0.144E-02
  11 F= -.64631242E+03 E0= -.64625248E+03  d E =-.169018E+00
       N       E                     dE             d eps       ncg     rms          rms(c)
DAV:   1    -0.645652065776E+03    0.66035E+00   -0.60598E+01 10056   0.410E+01    0.529E+00
RMM:   2    -0.651205363944E+03   -0.55533E+01   -0.15732E+01 10981   0.130E+01    0.247E+01
RMM:   3    -0.646568210088E+03    0.46372E+01   -0.26553E+00 10390   0.615E+00    0.568E+00
RMM:   4    -0.646474011421E+03    0.94199E-01   -0.65387E-01 12684   0.191E+00    0.329E+00
RMM:   5    -0.646448449546E+03    0.25562E-01   -0.16290E-01 11979   0.998E-01    0.274E+00
RMM:   6    -0.646407561522E+03    0.40888E-01   -0.60099E-02 10999   0.763E-01    0.117E+00
RMM:   7    -0.646407531136E+03    0.30386E-04   -0.57133E-02 12327   0.520E-01    0.144E+00
RMM:   8    -0.646407886474E+03   -0.35534E-03   -0.25228E-02 11180   0.516E-01    0.162E+00
RMM:   9    -0.646401793050E+03    0.60934E-02   -0.18267E-02 12232   0.394E-01    0.121E+00
RMM:  10    -0.646394394318E+03    0.73987E-02   -0.84018E-03 11320   0.270E-01    0.278E-01
RMM:  11    -0.646395017797E+03   -0.62348E-03   -0.78165E-03 12495   0.121E-01    0.281E-01
RMM:  12    -0.646394898990E+03    0.11881E-03   -0.23543E-03 11853   0.880E-02    0.164E-01
RMM:  13    -0.646394948236E+03   -0.49246E-04   -0.11545E-03 12069   0.539E-02    0.821E-02
RMM:  14    -0.646395081676E+03   -0.13344E-03   -0.71134E-04 11932   0.362E-02    0.451E-02
RMM:  15    -0.646395130257E+03   -0.48581E-04   -0.34180E-04 11192   0.279E-02    0.242E-02
RMM:  16    -0.646395136183E+03   -0.59263E-05   -0.15053E-04  9968   0.204E-02    0.137E-02
RMM:  17    -0.646395138691E+03   -0.25078E-05   -0.51731E-05  7496   0.174E-02
  12 F= -.64639514E+03 E0= -.64633888E+03  d E =-.827200E-01
       N       E                     dE             d eps       ncg     rms          rms(c)
DAV:   1    -0.646394241800E+03    0.89438E-03   -0.11272E-01 11040   0.175E+00    0.231E-01
RMM:   2    -0.646404380403E+03   -0.10139E-01   -0.23931E-02 11471   0.482E-01    0.112E+00
RMM:   3    -0.646395924733E+03    0.84557E-02   -0.46754E-03 10071   0.269E-01    0.331E-01
RMM:   4    -0.646395461976E+03    0.46276E-03   -0.11371E-03 10669   0.998E-02    0.126E-01
RMM:   5    -0.646395463986E+03   -0.20102E-05   -0.39568E-04 10589   0.486E-02    0.138E-01
RMM:   6    -0.646395363334E+03    0.10065E-03   -0.10574E-04  6969   0.396E-02    0.621E-02
RMM:   7    -0.646395399001E+03   -0.35667E-04   -0.90269E-05  6719   0.318E-02    0.115E-01
RMM:   8    -0.646395337594E+03    0.61407E-04   -0.53078E-05  5755   0.323E-02    0.361E-02
RMM:   9    -0.646395346185E+03   -0.85911E-05   -0.43621E-05  5499   0.264E-02
  13 F= -.64639535E+03 E0= -.64633904E+03  d E =-.829275E-01
       N       E                     dE             d eps       ncg     rms          rms(c)
DAV:   1    -0.645653531050E+03    0.74181E+00   -0.49967E+01  8688   0.380E+01    0.261E+00
RMM:   2    -0.647151508133E+03   -0.14980E+01   -0.96091E+00 13125   0.789E+00    0.933E+00
RMM:   3    -0.646485358346E+03    0.66615E+00   -0.68282E-01 10490   0.296E+00    0.166E+00
RMM:   4    -0.646528272969E+03   -0.42915E-01   -0.25906E-01 12575   0.104E+00    0.313E+00
RMM:   5    -0.646479198816E+03    0.49074E-01   -0.54946E-02 11429   0.659E-01    0.122E+00
RMM:   6    -0.646480302415E+03   -0.11036E-02   -0.42278E-02 12284   0.390E-01    0.124E+00
RMM:   7    -0.646475189503E+03    0.51129E-02   -0.22916E-02 12394   0.337E-01    0.837E-01
RMM:   8    -0.646474397283E+03    0.79222E-03   -0.11531E-02 10876   0.345E-01    0.837E-01
RMM:   9    -0.646470269019E+03    0.41283E-02   -0.93385E-03 12768   0.228E-01    0.205E-01
RMM:  10    -0.646471250214E+03   -0.98120E-03   -0.48163E-03 11772   0.132E-01    0.432E-01
RMM:  11    -0.646470321139E+03    0.92908E-03   -0.18540E-03 10627   0.975E-02    0.978E-02
RMM:  12    -0.646470579030E+03   -0.25789E-03   -0.13385E-03 11357   0.591E-02    0.218E-01
RMM:  13    -0.646470415383E+03    0.16365E-03   -0.51798E-04 10955   0.482E-02    0.573E-02
RMM:  14    -0.646470439397E+03   -0.24015E-04   -0.33891E-04 10628   0.242E-02    0.316E-02
RMM:  15    -0.646470450801E+03   -0.11404E-04   -0.15259E-04 10050   0.226E-02    0.153E-02
RMM:  16    -0.646470450441E+03    0.36010E-06   -0.55595E-05  7213   0.158E-02
  14 F= -.64647045E+03 E0= -.64641490E+03  d E =-.751043E-01
       N       E                     dE             d eps       ncg     rms          rms(c)
DAV:   1    -0.646429149227E+03    0.41302E-01   -0.27043E+00  8784   0.886E+00    0.609E-01
RMM:   2    -0.646512670543E+03   -0.83521E-01   -0.52778E-01 13026   0.184E+00    0.225E+00
RMM:   3    -0.646474017485E+03    0.38653E-01   -0.39766E-02 10211   0.753E-01    0.406E-01
RMM:   4    -0.646476860549E+03   -0.28431E-02   -0.15193E-02 12166   0.256E-01    0.807E-01
RMM:   5    -0.646473836854E+03    0.30237E-02   -0.33752E-03 11103   0.158E-01    0.284E-01
RMM:   6    -0.646473786671E+03    0.50183E-04   -0.22669E-03 10623   0.998E-02    0.258E-01
RMM:   7    -0.646473535115E+03    0.25156E-03   -0.13370E-03 12111   0.842E-02    0.174E-01
RMM:   8    -0.646473581591E+03   -0.46477E-04   -0.65572E-04 10372   0.879E-02    0.218E-01
RMM:   9    -0.646473302078E+03    0.27951E-03   -0.47364E-04 10825   0.623E-02    0.504E-02
RMM:  10    -0.646473356693E+03   -0.54616E-04   -0.31054E-04  9234   0.381E-02    0.990E-02
RMM:  11    -0.646473309837E+03    0.46856E-04   -0.11038E-04  6887   0.259E-02    0.286E-02
RMM:  12    -0.646473318496E+03   -0.86587E-05   -0.58876E-05  5831   0.208E-02
  15 F= -.64647332E+03 E0= -.64641792E+03  d E =-.779723E-01
       N       E                     dE             d eps       ncg     rms          rms(c)
DAV:   1    -0.646295368268E+03    0.17794E+00   -0.11988E+01  8328   0.188E+01    0.821E-01
RMM:   2    -0.646551536476E+03   -0.25617E+00   -0.22557E+00 12695   0.404E+00    0.300E+00
RMM:   3    -0.646515605768E+03    0.35931E-01   -0.14997E-01 11674   0.112E+00    0.937E-01
RMM:   4    -0.646519244339E+03   -0.36386E-02   -0.38388E-02 12276   0.412E-01    0.107E+00
RMM:   5    -0.646512307818E+03    0.69365E-02   -0.88017E-03 10416   0.275E-01    0.341E-01
RMM:   6    -0.646513062753E+03   -0.75493E-03   -0.71927E-03 11294   0.174E-01    0.488E-01
RMM:   7    -0.646512390839E+03    0.67191E-03   -0.35981E-03 11734   0.142E-01    0.399E-01
RMM:   8    -0.646512541428E+03   -0.15059E-03   -0.20085E-03  9999   0.142E-01    0.453E-01
RMM:   9    -0.646511590095E+03    0.95133E-03   -0.15763E-03 11048   0.106E-01    0.181E-01
RMM:  10    -0.646511503887E+03    0.86208E-04   -0.89627E-04  9637   0.634E-02    0.990E-02
RMM:  11    -0.646511490425E+03    0.13462E-04   -0.38059E-04  9389   0.378E-02    0.687E-02
RMM:  12    -0.646511489160E+03    0.12646E-05   -0.17811E-04  7146   0.304E-02    0.538E-02
RMM:  13    -0.646511480818E+03    0.83428E-05   -0.10533E-04  7298   0.214E-02    0.130E-02
RMM:  14    -0.646511484847E+03   -0.40296E-05   -0.53302E-05  5948   0.141E-02
  16 F= -.64651148E+03 E0= -.64645619E+03  d E =-.381664E-01
       N       E                     dE             d eps       ncg     rms          rms(c)
DAV:   1    -0.646384077746E+03    0.12740E+00   -0.83359E+00  8400   0.156E+01    0.671E-01
RMM:   2    -0.646549131108E+03   -0.16505E+00   -0.14587E+00 12649   0.326E+00    0.242E+00
RMM:   3    -0.646526094526E+03    0.23037E-01   -0.96581E-02 11651   0.959E-01    0.768E-01
RMM:   4    -0.646528564565E+03   -0.24700E-02   -0.26748E-02 12186   0.360E-01    0.866E-01
RMM:   5    -0.646524123107E+03    0.44415E-02   -0.68839E-03 10433   0.236E-01    0.284E-01
RMM:   6    -0.646524675526E+03   -0.55242E-03   -0.49076E-03 11147   0.145E-01    0.417E-01
RMM:   7    -0.646524210010E+03    0.46552E-03   -0.24680E-03 11539   0.118E-01    0.340E-01
RMM:   8    -0.646524200567E+03    0.94427E-05   -0.13641E-03  9765   0.119E-01    0.346E-01
RMM:   9    -0.646523628321E+03    0.57225E-03   -0.11131E-03 11051   0.891E-02    0.145E-01
RMM:  10    -0.646523572093E+03    0.56227E-04   -0.59588E-04  9167   0.538E-02    0.796E-02
RMM:  11    -0.646523562441E+03    0.96525E-05   -0.25554E-04  8823   0.316E-02    0.513E-02
RMM:  12    -0.646523566209E+03   -0.37682E-05   -0.11899E-04  6446   0.262E-02    0.472E-02
RMM:  13    -0.646523558800E+03    0.74092E-05   -0.70289E-05  6290   0.204E-02
  17 F= -.64652356E+03 E0= -.64646835E+03  d E =-.502403E-01
       N       E                     dE             d eps       ncg     rms          rms(c)
DAV:   1    -0.646395598911E+03    0.12797E+00   -0.77187E+00  8400   0.157E+01    0.825E-01
RMM:   2    -0.646603206056E+03   -0.20761E+00   -0.15767E+00 12857   0.312E+00    0.317E+00
RMM:   3    -0.646549334801E+03    0.53871E-01   -0.11833E-01 10438   0.135E+00    0.117E+00
RMM:   4    -0.646551042522E+03   -0.17077E-02   -0.40205E-02 11700   0.539E-01    0.107E+00
RMM:   5    -0.646544966630E+03    0.60759E-02   -0.11437E-02 11088   0.298E-01    0.391E-01
RMM:   6    -0.646545106133E+03   -0.13950E-03   -0.65929E-03 11337   0.153E-01    0.396E-01
RMM:   7    -0.646545508207E+03   -0.40207E-03   -0.36323E-03 12157   0.135E-01    0.539E-01
RMM:   8    -0.646544275435E+03    0.12328E-02   -0.16769E-03 10267   0.136E-01    0.227E-01
RMM:   9    -0.646544240907E+03    0.34528E-04   -0.16261E-03 11966   0.895E-02    0.231E-01
RMM:  10    -0.646543971149E+03    0.26976E-03   -0.51878E-04  9689   0.660E-02    0.606E-02
RMM:  11    -0.646544000324E+03   -0.29174E-04   -0.39271E-04  9811   0.346E-02    0.702E-02
RMM:  12    -0.646543989126E+03    0.11197E-04   -0.14305E-04  7106   0.267E-02    0.417E-02
RMM:  13    -0.646543988256E+03    0.87029E-06   -0.84549E-05  6986   0.210E-02
  18 F= -.64654399E+03 E0= -.64648914E+03  d E =-.204295E-01
       N       E                     dE             d eps       ncg     rms          rms(c)
DAV:   1    -0.646499571883E+03    0.44417E-01   -0.25012E+00  8400   0.896E+00    0.469E-01
RMM:   2    -0.646565828806E+03   -0.66257E-01   -0.50416E-01 12826   0.177E+00    0.180E+00
RMM:   3    -0.646549566237E+03    0.16263E-01   -0.42336E-02 10343   0.816E-01    0.657E-01
RMM:   4    -0.646550241759E+03   -0.67552E-03   -0.13226E-02 11315   0.323E-01    0.608E-01
RMM:   5    -0.646548332668E+03    0.19091E-02   -0.41934E-03 10641   0.180E-01    0.233E-01
RMM:   6    -0.646548368551E+03   -0.35883E-04   -0.22295E-03 10439   0.910E-02    0.225E-01
RMM:   7    -0.646548504825E+03   -0.13627E-03   -0.12174E-03 11653   0.783E-02    0.302E-01
RMM:   8    -0.646548110569E+03    0.39426E-03   -0.55485E-04  9497   0.819E-02    0.126E-01
RMM:   9    -0.646548110200E+03    0.36851E-06   -0.53888E-04 11157   0.561E-02    0.134E-01
RMM:  10    -0.646548018347E+03    0.91853E-04   -0.17196E-04  7609   0.417E-02    0.332E-02
RMM:  11    -0.646548028153E+03   -0.98060E-05   -0.12856E-04  7608   0.229E-02    0.357E-02
RMM:  12    -0.646548027129E+03    0.10235E-05   -0.44503E-05  5532   0.196E-02
  19 F= -.64654803E+03 E0= -.64649334E+03  d E =-.244683E-01
       N       E                     dE             d eps       ncg     rms          rms(c)
DAV:   1    -0.646443153567E+03    0.10487E+00   -0.93791E+00 10560   0.169E+01    0.165E+00
RMM:   2    -0.646900105641E+03   -0.45695E+00   -0.16339E+00 12119   0.378E+00    0.681E+00
RMM:   3    -0.646570125360E+03    0.32998E+00   -0.34280E-01 10158   0.253E+00    0.153E+00
RMM:   4    -0.646572993299E+03   -0.28679E-02   -0.95042E-02 12440   0.830E-01    0.143E+00
RMM:   5    -0.646566075153E+03    0.69181E-02   -0.28458E-02 12107   0.430E-01    0.916E-01
RMM:   6    -0.646562714887E+03    0.33603E-02   -0.84512E-03 11185   0.265E-01    0.548E-01
RMM:   7    -0.646563706889E+03   -0.99200E-03   -0.74346E-03 11990   0.213E-01    0.751E-01
RMM:   8    -0.646561318129E+03    0.23888E-02   -0.33155E-03 10806   0.188E-01    0.334E-01
RMM:   9    -0.646561655902E+03   -0.33777E-03   -0.29955E-03 12206   0.134E-01    0.419E-01
RMM:  10    -0.646560727883E+03    0.92802E-03   -0.11319E-03 10258   0.103E-01    0.901E-02
RMM:  11    -0.646560788726E+03   -0.60843E-04   -0.10883E-03 11411   0.456E-02    0.896E-02
RMM:  12    -0.646560779928E+03    0.87983E-05   -0.31819E-04 10549   0.342E-02    0.594E-02
RMM:  13    -0.646560776663E+03    0.32646E-05   -0.17449E-04 10106   0.223E-02    0.268E-02
RMM:  14    -0.646560781651E+03   -0.49880E-05   -0.86861E-05  7738   0.158E-02
  20 F= -.64656078E+03 E0= -.64650583E+03  d E =-.127545E-01
       N       E                     dE             d eps       ncg     rms          rms(c)
DAV:   1    -0.646558237635E+03    0.25390E-02   -0.19558E-01 10464   0.246E+00    0.241E-01
RMM:   2    -0.646568538032E+03   -0.10300E-01   -0.42046E-02 12021   0.566E-01    0.979E-01
RMM:   3    -0.646561230200E+03    0.73078E-02   -0.54761E-03  9480   0.296E-01    0.201E-01
RMM:   4    -0.646561344938E+03   -0.11474E-03   -0.18290E-03 10505   0.108E-01    0.228E-01
RMM:   5    -0.646561110757E+03    0.23418E-03   -0.44354E-04  9856   0.588E-02    0.112E-01
RMM:   6    -0.646561073193E+03    0.37564E-04   -0.18586E-04  7175   0.432E-02    0.858E-02
RMM:   7    -0.646561082052E+03   -0.88590E-05   -0.15837E-04  8804   0.352E-02    0.103E-01
RMM:   8    -0.646561041632E+03    0.40420E-04   -0.73484E-05  6390   0.333E-02    0.525E-02
RMM:   9    -0.646561042561E+03   -0.92929E-06   -0.64310E-05  5991   0.252E-02
  21 F= -.64656104E+03 E0= -.64650608E+03  d E =-.130154E-01
       N       E                     dE             d eps       ncg     rms          rms(c)
DAV:   1    -0.646477370013E+03    0.83672E-01   -0.53780E+00  8688   0.128E+01    0.959E-01
RMM:   2    -0.646704267092E+03   -0.22690E+00   -0.11407E+00 13006   0.275E+00    0.434E+00
RMM:   3    -0.646575971226E+03    0.12830E+00   -0.11124E-01 10264   0.137E+00    0.120E+00
RMM:   4    -0.646573751138E+03    0.22201E-02   -0.39900E-02 12093   0.480E-01    0.805E-01
RMM:   5    -0.646570941810E+03    0.28093E-02   -0.10409E-02 12366   0.239E-01    0.447E-01
RMM:   6    -0.646570281358E+03    0.66045E-03   -0.37317E-03 11440   0.141E-01    0.304E-01
RMM:   7    -0.646570686091E+03   -0.40473E-03   -0.26194E-03 12225   0.115E-01    0.464E-01
RMM:   8    -0.646569863752E+03    0.82234E-03   -0.12926E-03 10404   0.122E-01    0.230E-01
RMM:   9    -0.646569886844E+03   -0.23092E-04   -0.12975E-03 11991   0.919E-02    0.254E-01
RMM:  10    -0.646569543699E+03    0.34314E-03   -0.48042E-04  9817   0.678E-02    0.547E-02
RMM:  11    -0.646569569691E+03   -0.25992E-04   -0.41200E-04 10420   0.323E-02    0.505E-02
RMM:  12    -0.646569573735E+03   -0.40442E-05   -0.12044E-04  7023   0.238E-02    0.441E-02
RMM:  13    -0.646569571788E+03    0.19474E-05   -0.59925E-05  6329   0.226E-02
  22 F= -.64656957E+03 E0= -.64651478E+03  d E =-.852923E-02
       N       E                     dE             d eps       ncg     rms          rms(c)
DAV:   1    -0.646555709466E+03    0.13864E-01   -0.84136E-01  8640   0.508E+00    0.379E-01
RMM:   2    -0.646591057485E+03   -0.35348E-01   -0.17982E-01 12993   0.108E+00    0.170E+00
RMM:   3    -0.646571530944E+03    0.19527E-01   -0.17549E-02  9966   0.535E-01    0.478E-01
RMM:   4    -0.646571168508E+03    0.36244E-03   -0.61644E-03 11133   0.193E-01    0.321E-01
RMM:   5    -0.646570729570E+03    0.43894E-03   -0.17253E-03 10952   0.969E-02    0.178E-01
RMM:   6    -0.646570634595E+03    0.94975E-04   -0.60411E-04  9297   0.618E-02    0.124E-01
RMM:   7    -0.646570701764E+03   -0.67169E-04   -0.43153E-04 10718   0.490E-02    0.184E-01
RMM:   8    -0.646570570917E+03    0.13085E-03   -0.21064E-04  8525   0.538E-02    0.868E-02
RMM:   9    -0.646570581999E+03   -0.11082E-04   -0.22859E-04 10472   0.399E-02    0.985E-02
RMM:  10    -0.646570531153E+03    0.50846E-04   -0.79036E-05  6473   0.326E-02    0.219E-02
RMM:  11    -0.646570536354E+03   -0.52015E-05   -0.65145E-05  6124   0.192E-02
  23 F= -.64657054E+03 E0= -.64651583E+03  d E =-.949379E-02
       N       E                     dE             d eps       ncg     rms          rms(c)
DAV:   1    -0.646545400938E+03    0.25130E-01   -0.20116E+00  8400   0.736E+00    0.330E-01
RMM:   2    -0.646578483239E+03   -0.33082E-01   -0.32160E-01 12658   0.155E+00    0.803E-01
RMM:   3    -0.646577499697E+03    0.98354E-03   -0.26021E-02 11719   0.551E-01    0.432E-01
RMM:   4    -0.646578193378E+03   -0.69368E-03   -0.61980E-03 11182   0.229E-01    0.505E-01
RMM:   5    -0.646576814746E+03    0.13786E-02   -0.20018E-03  9383   0.139E-01    0.149E-01
RMM:   6    -0.646576936653E+03   -0.12191E-03   -0.13334E-03 10296   0.761E-02    0.200E-01
RMM:   7    -0.646576782438E+03    0.15421E-03   -0.67964E-04 10782   0.649E-02    0.146E-01
RMM:   8    -0.646576834515E+03   -0.52077E-04   -0.34263E-04  8820   0.642E-02    0.191E-01
RMM:   9    -0.646576678925E+03    0.15559E-03   -0.25166E-04  9616   0.455E-02    0.778E-02
RMM:  10    -0.646576659954E+03    0.18972E-04   -0.13958E-04  6566   0.321E-02    0.389E-02
RMM:  11    -0.646576655294E+03    0.46598E-05   -0.64383E-05  6216   0.209E-02
  24 F= -.64657666E+03 E0= -.64652197E+03  d E =-.611894E-02
       N       E                     dE             d eps       ncg     rms          rms(c)
DAV:   1    -0.646539716970E+03    0.36943E-01   -0.26350E+00  8496   0.841E+00    0.374E-01
RMM:   2    -0.646581614820E+03   -0.41898E-01   -0.41011E-01 12656   0.178E+00    0.890E-01
RMM:   3    -0.646580972994E+03    0.64183E-03   -0.34982E-02 11796   0.642E-01    0.502E-01
RMM:   4    -0.646581766764E+03   -0.79377E-03   -0.81595E-03 11341   0.267E-01    0.558E-01
RMM:   5    -0.646580092369E+03    0.16744E-02   -0.28215E-03  9665   0.162E-01    0.166E-01
RMM:   6    -0.646580261983E+03   -0.16961E-03   -0.17545E-03 10607   0.851E-02    0.226E-01
RMM:   7    -0.646579991238E+03    0.27074E-03   -0.88475E-04 11066   0.744E-02    0.111E-01
RMM:   8    -0.646580113757E+03   -0.12252E-03   -0.49497E-04  9853   0.702E-02    0.203E-01
RMM:   9    -0.646579900610E+03    0.21315E-03   -0.23302E-04  8718   0.529E-02    0.601E-02
RMM:  10    -0.646579922403E+03   -0.21794E-04   -0.21272E-04  7591   0.301E-02    0.751E-02
RMM:  11    -0.646579899914E+03    0.22490E-04   -0.80544E-05  6255   0.237E-02    0.169E-02
RMM:  12    -0.646579905420E+03   -0.55057E-05   -0.42575E-05  5617   0.182E-02
  25 F= -.64657991E+03 E0= -.64652523E+03  d E =-.936907E-02
       N       E                     dE             d eps       ncg     rms          rms(c)
DAV:   1    -0.646561591653E+03    0.18308E-01   -0.18043E+00 10224   0.676E+00    0.704E-01
RMM:   2    -0.646644937167E+03   -0.83346E-01   -0.34972E-01 12359   0.163E+00    0.278E+00
RMM:   3    -0.646586327462E+03    0.58610E-01   -0.46052E-02 10215   0.872E-01    0.621E-01
RMM:   4    -0.646587274599E+03   -0.94714E-03   -0.15286E-02 12042   0.304E-01    0.694E-01
RMM:   5    -0.646585018644E+03    0.22560E-02   -0.39316E-03 11742   0.167E-01    0.338E-01
RMM:   6    -0.646584791484E+03    0.22716E-03   -0.17540E-03 10733   0.116E-01    0.303E-01
RMM:   7    -0.646584681516E+03    0.10997E-03   -0.14001E-03 11617   0.987E-02    0.283E-01
RMM:   8    -0.646584408459E+03    0.27306E-03   -0.70642E-04 10091   0.909E-02    0.177E-01
RMM:   9    -0.646584305047E+03    0.10341E-03   -0.55958E-04 11148   0.598E-02    0.126E-01
RMM:  10    -0.646584229983E+03    0.75065E-04   -0.21366E-04  8879   0.417E-02    0.449E-02
RMM:  11    -0.646584223973E+03    0.60094E-05   -0.13786E-04  8558   0.217E-02    0.161E-02
RMM:  12    -0.646584226081E+03   -0.21080E-05   -0.59968E-05  6099   0.160E-02
  26 F= -.64658423E+03 E0= -.64652950E+03  d E =-.432066E-02
       N       E                     dE             d eps       ncg     rms          rms(c)
DAV:   1    -0.646579655114E+03    0.45689E-02   -0.41988E-01 10272   0.327E+00    0.343E-01
RMM:   2    -0.646599456806E+03   -0.19802E-01   -0.82279E-02 12209   0.793E-01    0.136E+00
RMM:   3    -0.646585407784E+03    0.14049E-01   -0.10954E-02  9840   0.421E-01    0.300E-01
RMM:   4    -0.646585626419E+03   -0.21864E-03   -0.35771E-03 11165   0.150E-01    0.335E-01
RMM:   5    -0.646585112333E+03    0.51409E-03   -0.92007E-04 10425   0.836E-02    0.168E-01
RMM:   6    -0.646585045875E+03    0.66458E-04   -0.42852E-04  9210   0.633E-02    0.142E-01
RMM:   7    -0.646585040344E+03    0.55304E-05   -0.35532E-04 10772   0.506E-02    0.145E-01
RMM:   8    -0.646584961160E+03    0.79184E-04   -0.16449E-04  8055   0.488E-02    0.814E-02
RMM:   9    -0.646584941223E+03    0.19937E-04   -0.14350E-04  8641   0.316E-02    0.617E-02
RMM:  10    -0.646584922767E+03    0.18456E-04   -0.47599E-05  5695   0.242E-02    0.227E-02
RMM:  11    -0.646584920948E+03    0.18199E-05   -0.32451E-05  5474   0.197E-02
  27 F= -.64658492E+03 E0= -.64653016E+03  d E =-.501553E-02
       N       E                     dE             d eps       ncg     rms          rms(c)
DAV:   1    -0.646570877290E+03    0.14045E-01   -0.12004E+00  9936   0.575E+00    0.540E-01
RMM:   2    -0.646631260794E+03   -0.60384E-01   -0.23608E-01 12479   0.133E+00    0.245E+00
RMM:   3    -0.646589622937E+03    0.41638E-01   -0.32394E-02 10152   0.750E-01    0.635E-01
RMM:   4    -0.646588690425E+03    0.93251E-03   -0.10938E-02 11702   0.262E-01    0.377E-01
RMM:   5    -0.646588131671E+03    0.55875E-03   -0.27282E-03 11791   0.130E-01    0.257E-01
RMM:   6    -0.646587868175E+03    0.26350E-03   -0.80548E-04 10148   0.840E-02    0.159E-01
RMM:   7    -0.646587961929E+03   -0.93754E-04   -0.79777E-04 11687   0.668E-02    0.231E-01
RMM:   8    -0.646587769764E+03    0.19216E-03   -0.33298E-04  9066   0.661E-02    0.130E-01
RMM:   9    -0.646587776923E+03   -0.71597E-05   -0.29933E-04 10441   0.505E-02    0.134E-01
RMM:  10    -0.646587681555E+03    0.95368E-04   -0.13586E-04  7765   0.380E-02    0.249E-02
RMM:  11    -0.646587689095E+03   -0.75397E-05   -0.10238E-04  6840   0.202E-02    0.170E-02
RMM:  12    -0.646587692428E+03   -0.33332E-05   -0.24694E-05  5245   0.177E-02
  28 F= -.64658769E+03 E0= -.64653307E+03  d E =-.277148E-02
       N       E                     dE             d eps       ncg     rms          rms(c)
DAV:   1    -0.646582863112E+03    0.48260E-02   -0.38932E-01 10224   0.328E+00    0.310E-01
RMM:   2    -0.646602629304E+03   -0.19766E-01   -0.75804E-02 12278   0.754E-01    0.141E+00
RMM:   3    -0.646588894042E+03    0.13735E-01   -0.10821E-02  9730   0.435E-01    0.365E-01
RMM:   4    -0.646588572282E+03    0.32176E-03   -0.35310E-03 10823   0.155E-01    0.211E-01
RMM:   5    -0.646588413647E+03    0.15863E-03   -0.95125E-04 10460   0.752E-02    0.149E-01
RMM:   6    -0.646588323919E+03    0.89728E-04   -0.24231E-04  8090   0.516E-02    0.893E-02
RMM:   7    -0.646588362466E+03   -0.38547E-04   -0.26246E-04 10514   0.397E-02    0.133E-01
RMM:   8    -0.646588296867E+03    0.65599E-04   -0.10291E-04  6860   0.405E-02    0.684E-02
RMM:   9    -0.646588300613E+03   -0.37456E-05   -0.94572E-05  7232   0.308E-02
  29 F= -.64658830E+03 E0= -.64653374E+03  d E =-.337967E-02
       N       E                     dE             d eps       ncg     rms          rms(c)
DAV:   1    -0.646587346407E+03    0.95046E-03   -0.67004E-02 10272   0.136E+00    0.127E-01
RMM:   2    -0.646590619050E+03   -0.32726E-02   -0.12766E-02 12174   0.306E-01    0.562E-01
RMM:   3    -0.646588383007E+03    0.22360E-02   -0.19282E-03  8815   0.185E-01    0.142E-01
RMM:   4    -0.646588355487E+03    0.27520E-04   -0.64463E-04  9524   0.694E-02    0.938E-02
RMM:   5    -0.646588321858E+03    0.33629E-04   -0.15647E-04  7503   0.337E-02    0.526E-02
RMM:   6    -0.646588313810E+03    0.80485E-05   -0.48269E-05  5686   0.240E-02
  30 F= -.64658831E+03 E0= -.64653383E+03  d E =-.339286E-02
       N       E                     dE             d eps       ncg     rms          rms(c)
DAV:   1    -0.646583436854E+03    0.48850E-02   -0.52105E-01  8544   0.344E+00    0.184E-01
RMM:   2    -0.646590645216E+03   -0.72084E-02   -0.69619E-02 12669   0.741E-01    0.411E-01
RMM:   3    -0.646590338034E+03    0.30718E-03   -0.65281E-03 11529   0.282E-01    0.259E-01
RMM:   4    -0.646590615574E+03   -0.27754E-03   -0.16265E-03 10484   0.129E-01    0.331E-01
RMM:   5    -0.646590058517E+03    0.55706E-03   -0.62084E-04  8547   0.852E-02    0.108E-01
RMM:   6    -0.646590081904E+03   -0.23387E-04   -0.38353E-04  9064   0.501E-02    0.133E-01
RMM:   7    -0.646590041007E+03    0.40896E-04   -0.24300E-04  9241   0.436E-02    0.103E-01
RMM:   8    -0.646590019943E+03    0.21064E-04   -0.14009E-04  7228   0.421E-02    0.828E-02
RMM:   9    -0.646589976375E+03    0.43568E-04   -0.95182E-05  6680   0.278E-02    0.229E-02
RMM:  10    -0.646589980513E+03   -0.41381E-05   -0.44335E-05  5739   0.212E-02
  31 F= -.64658998E+03 E0= -.64653551E+03  d E =-.166670E-02
       N       E                     dE             d eps       ncg     rms          rms(c)
DAV:   1    -0.646576914232E+03    0.13062E-01   -0.11058E+00  8400   0.502E+00    0.265E-01
RMM:   2    -0.646591839943E+03   -0.14926E-01   -0.14701E-01 12686   0.108E+00    0.583E-01
RMM:   3    -0.646591623864E+03    0.21608E-03   -0.13597E-02 11895   0.401E-01    0.421E-01
RMM:   4    -0.646592002032E+03   -0.37817E-03   -0.32068E-03 10971   0.185E-01    0.452E-01
RMM:   5    -0.646590854936E+03    0.11471E-02   -0.12906E-03  9191   0.122E-01    0.144E-01
RMM:   6    -0.646590938605E+03   -0.83669E-04   -0.85972E-04  9972   0.702E-02    0.192E-01
RMM:   7    -0.646590836020E+03    0.10258E-03   -0.52680E-04 10617   0.614E-02    0.137E-01
RMM:   8    -0.646590786269E+03    0.49751E-04   -0.25842E-04  8246   0.560E-02    0.107E-01
RMM:   9    -0.646590720039E+03    0.66229E-04   -0.18380E-04  8175   0.352E-02    0.340E-02
RMM:  10    -0.646590726085E+03   -0.60461E-05   -0.82381E-05  6553   0.227E-02
  32 F= -.64659073E+03 E0= -.64653628E+03  d E =-.241228E-02
       N       E                     dE             d eps       ncg     rms          rms(c)
DAV:   1    -0.646585098849E+03    0.56212E-02   -0.72483E-01 10032   0.449E+00    0.611E-01
RMM:   2    -0.646648361708E+03   -0.63263E-01   -0.17146E-01 11644   0.124E+00    0.268E+00
RMM:   3    -0.646594539140E+03    0.53823E-01   -0.29776E-02 10131   0.702E-01    0.686E-01
RMM:   4    -0.646592905491E+03    0.16336E-02   -0.77849E-03 11328   0.226E-01    0.389E-01
RMM:   5    -0.646592690376E+03    0.21512E-03   -0.24738E-03 11437   0.124E-01    0.387E-01
RMM:   6    -0.646591990126E+03    0.70025E-03   -0.87132E-04  9707   0.100E-01    0.175E-01
RMM:   7    -0.646592131865E+03   -0.14174E-03   -0.91920E-04 10960   0.808E-02    0.254E-01
RMM:   8    -0.646591833166E+03    0.29870E-03   -0.40265E-04  9539   0.719E-02    0.101E-01
RMM:   9    -0.646591832900E+03    0.26651E-06   -0.33580E-04 10757   0.479E-02    0.107E-01
RMM:  10    -0.646591769865E+03    0.63035E-04   -0.11644E-04  7758   0.347E-02    0.266E-02
RMM:  11    -0.646591769644E+03    0.22037E-06   -0.80624E-05  6729   0.181E-02
  33 F= -.64659177E+03 E0= -.64653726E+03  d E =-.104356E-02
       N       E                     dE             d eps       ncg     rms          rms(c)
DAV:   1    -0.646591747131E+03    0.22734E-04   -0.37843E-03 10440   0.322E-01    0.487E-02
RMM:   2    -0.646592151720E+03   -0.40459E-03   -0.92548E-04  9514   0.928E-02    0.221E-01
RMM:   3    -0.646591792657E+03    0.35906E-03   -0.19042E-04  6955   0.663E-02    0.514E-02
RMM:   4    -0.646591783432E+03    0.92250E-05   -0.41319E-05  5537   0.246E-02
  34 F= -.64659178E+03 E0= -.64653726E+03  d E =-.105735E-02
       N       E                     dE             d eps       ncg     rms          rms(c)
DAV:   1    -0.646589239854E+03    0.25528E-02   -0.22497E-01  8688   0.260E+00    0.149E-01
RMM:   2    -0.646593500877E+03   -0.42610E-02   -0.40263E-02 12901   0.523E-01    0.377E-01
RMM:   3    -0.646593098372E+03    0.40251E-03   -0.31058E-03 11101   0.199E-01    0.210E-01
RMM:   4    -0.646593182479E+03   -0.84107E-04   -0.96368E-04 10134   0.957E-02    0.236E-01
RMM:   5    -0.646592898190E+03    0.28429E-03   -0.35146E-04  8254   0.674E-02    0.109E-01
RMM:   6    -0.646592887475E+03    0.10715E-04   -0.20669E-04  8190   0.466E-02    0.108E-01
RMM:   7    -0.646592855898E+03    0.31577E-04   -0.17743E-04  9016   0.366E-02    0.851E-02
RMM:   8    -0.646592847227E+03    0.86708E-05   -0.87854E-05  6087   0.356E-02
  35 F= -.64659285E+03 E0= -.64653843E+03  d E =-.106380E-02
       N       E                     dE             d eps       ncg     rms          rms(c)
DAV:   1    -0.646588841236E+03    0.40147E-02   -0.26181E-01  8400   0.281E+00    0.164E-01
RMM:   2    -0.646593639337E+03   -0.47981E-02   -0.45980E-02 12822   0.566E-01    0.371E-01
RMM:   3    -0.646593261374E+03    0.37796E-03   -0.39585E-03 10829   0.236E-01    0.224E-01
RMM:   4    -0.646593351578E+03   -0.90204E-04   -0.12545E-03 10042   0.111E-01    0.240E-01
RMM:   5    -0.646593011621E+03    0.33996E-03   -0.46555E-04  8613   0.759E-02    0.859E-02
RMM:   6    -0.646593061438E+03   -0.49817E-04   -0.32609E-04  8838   0.490E-02    0.134E-01
RMM:   7    -0.646592990747E+03    0.70691E-04   -0.19578E-04  8497   0.405E-02    0.787E-02
RMM:   8    -0.646593027187E+03   -0.36441E-04   -0.14191E-04  6702   0.360E-02    0.116E-01
RMM:   9    -0.646592959674E+03    0.67513E-04   -0.57207E-05  5478   0.273E-02    0.263E-02
RMM:  10    -0.646592961652E+03   -0.19777E-05   -0.48233E-05  5475   0.201E-02
  36 F= -.64659296E+03 E0= -.64653861E+03  d E =-.117822E-02
       N       E                     dE             d eps       ncg     rms          rms(c)
DAV:   1    -0.646592617223E+03    0.34245E-03   -0.27069E-02  8784   0.901E-01    0.533E-02
RMM:   2    -0.646593115315E+03   -0.49809E-03   -0.47982E-03 12800   0.181E-01    0.119E-01
RMM:   3    -0.646593062876E+03    0.52439E-04   -0.33541E-04  8136   0.696E-02    0.685E-02
RMM:   4    -0.646593072016E+03   -0.91398E-05   -0.88576E-05  6163   0.364E-02
  37 F= -.64659307E+03 E0= -.64653869E+03  d E =-.128858E-02
       N       E                     dE             d eps       ncg     rms          rms(c)
DAV:   1    -0.646590439864E+03    0.26230E-02   -0.15650E-01  8424   0.232E+00    0.149E-01
RMM:   2    -0.646595797601E+03   -0.53577E-02   -0.33505E-02 13036   0.452E-01    0.595E-01
RMM:   3    -0.646593519290E+03    0.22783E-02   -0.26163E-03  9358   0.204E-01    0.205E-01
RMM:   4    -0.646593479868E+03    0.39422E-04   -0.84157E-04  9662   0.819E-02    0.159E-01
RMM:   5    -0.646593376502E+03    0.10337E-03   -0.25347E-04  8300   0.448E-02    0.899E-02
RMM:   6    -0.646593340915E+03    0.35587E-04   -0.80175E-05  5874   0.295E-02    0.485E-02
RMM:   7    -0.646593345774E+03   -0.48583E-05   -0.60336E-05  5912   0.266E-02
  38 F= -.64659335E+03 E0= -.64653902E+03  d E =-.273758E-03
       N       E                     dE             d eps       ncg     rms          rms(c)
DAV:   1    -0.646592528864E+03    0.81205E-03   -0.49767E-02  9264   0.131E+00    0.913E-02
RMM:   2    -0.646594370694E+03   -0.18418E-02   -0.10414E-02 12632   0.260E-01    0.365E-01
RMM:   3    -0.646593432705E+03    0.93799E-03   -0.10388E-03  8438   0.137E-01    0.942E-02
RMM:   4    -0.646593447724E+03   -0.15019E-04   -0.35887E-04  8750   0.529E-02    0.869E-02
RMM:   5    -0.646593408135E+03    0.39589E-04   -0.82662E-05  5967   0.276E-02    0.323E-02
RMM:   6    -0.646593409382E+03   -0.12471E-05   -0.40875E-05  5482   0.220E-02
  39 F= -.64659341E+03 E0= -.64653908E+03  d E =-.337366E-03
       N       E                     dE             d eps       ncg     rms          rms(c)
DAV:   1    -0.646593478406E+03   -0.70271E-04   -0.55772E-02  9216   0.114E+00    0.127E-01
RMM:   2    -0.646595500924E+03   -0.20225E-02   -0.96501E-03 12826   0.273E-01    0.460E-01
RMM:   3    -0.646594108212E+03    0.13927E-02   -0.10740E-03  9633   0.128E-01    0.158E-01
RMM:   4    -0.646594101542E+03    0.66693E-05   -0.43820E-04  9436   0.650E-02    0.154E-01
RMM:   5    -0.646594028998E+03    0.72545E-04   -0.20218E-04  9254   0.446E-02    0.124E-01
RMM:   6    -0.646593954061E+03    0.74937E-04   -0.86484E-05  6272   0.396E-02    0.556E-02
RMM:   7    -0.646593967362E+03   -0.13301E-04   -0.84311E-05  6569   0.285E-02    0.759E-02
RMM:   8    -0.646593941352E+03    0.26010E-04   -0.34924E-05  5194   0.268E-02    0.303E-02
RMM:   9    -0.646593938738E+03    0.26141E-05   -0.23518E-05  5175   0.165E-02
  40 F= -.64659394E+03 E0= -.64653964E+03  d E =-.529356E-03
       N       E                     dE             d eps       ncg     rms          rms(c)
DAV:   1    -0.646593152702E+03    0.78865E-03   -0.12383E-01  9120   0.170E+00    0.193E-01
RMM:   2    -0.646597621136E+03   -0.44684E-02   -0.21606E-02 12670   0.409E-01    0.657E-01
RMM:   3    -0.646594432940E+03    0.31882E-02   -0.24835E-03  9706   0.199E-01    0.179E-01
RMM:   4    -0.646594602681E+03   -0.16974E-03   -0.10531E-03 10074   0.957E-02    0.255E-01
RMM:   5    -0.646594256335E+03    0.34635E-03   -0.40597E-04 10128   0.657E-02    0.121E-01
RMM:   6    -0.646594227089E+03    0.29245E-04   -0.20882E-04  7913   0.483E-02    0.997E-02
RMM:   7    -0.646594250711E+03   -0.23621E-04   -0.15238E-04  7848   0.368E-02    0.122E-01
RMM:   8    -0.646594179233E+03    0.71478E-04   -0.62890E-05  5685   0.322E-02    0.316E-02
RMM:   9    -0.646594183006E+03   -0.37726E-05   -0.54089E-05  5670   0.212E-02
  41 F= -.64659418E+03 E0= -.64653992E+03  d E =-.773624E-03
       N       E                     dE             d eps       ncg     rms          rms(c)
DAV:   1    -0.646594179329E+03   -0.96421E-07   -0.17448E-03 10200   0.203E-01    0.242E-02
RMM:   2    -0.646594244120E+03   -0.64791E-04   -0.28450E-04 10037   0.496E-02    0.870E-02
RMM:   3    -0.646594194302E+03    0.49818E-04   -0.32690E-05  5246   0.305E-02    0.261E-02
RMM:   4    -0.646594195827E+03   -0.15250E-05   -0.13230E-05  4855   0.173E-02
  42 F= -.64659420E+03 E0= -.64653994E+03  d E =-.786446E-03
       N       E                     dE             d eps       ncg     rms          rms(c)
DAV:   1    -0.646592930047E+03    0.12643E-02   -0.80948E-02  8592   0.162E+00    0.857E-02
RMM:   2    -0.646595049254E+03   -0.21192E-02   -0.16172E-02 12920   0.306E-01    0.293E-01
RMM:   3    -0.646594438389E+03    0.61086E-03   -0.10492E-03  9006   0.123E-01    0.768E-02
RMM:   4    -0.646594507127E+03   -0.68738E-04   -0.36323E-04  9183   0.503E-02    0.126E-01
RMM:   5    -0.646594425319E+03    0.81808E-04   -0.70493E-05  5675   0.308E-02    0.393E-02
RMM:   6    -0.646594424930E+03    0.38926E-06   -0.47297E-05  5724   0.200E-02
  43 F= -.64659442E+03 E0= -.64654017E+03  d E =-.229102E-03
       N       E                     dE             d eps       ncg     rms          rms(c)
DAV:   1    -0.646593535788E+03    0.88953E-03   -0.53150E-02  8400   0.131E+00    0.702E-02
RMM:   2    -0.646594964923E+03   -0.14291E-02   -0.10512E-02 12822   0.249E-01    0.264E-01
RMM:   3    -0.646594537330E+03    0.42759E-03   -0.80363E-04  8519   0.110E-01    0.761E-02
RMM:   4    -0.646594563037E+03   -0.25707E-04   -0.26628E-04  8647   0.444E-02    0.847E-02
RMM:   5    -0.646594524430E+03    0.38608E-04   -0.66264E-05  5639   0.265E-02    0.287E-02
RMM:   6    -0.646594525144E+03   -0.71421E-06   -0.36503E-05  5490   0.181E-02
  44 F= -.64659453E+03 E0= -.64654027E+03  d E =-.329316E-03
       N       E                     dE             d eps       ncg     rms          rms(c)
DAV:   1    -0.646594303017E+03    0.22141E-03   -0.48912E-02  8400   0.109E+00    0.894E-02
RMM:   2    -0.646595510863E+03   -0.12078E-02   -0.77357E-03 12768   0.241E-01    0.359E-01
RMM:   3    -0.646594912897E+03    0.59797E-03   -0.69976E-04  9099   0.105E-01    0.987E-02
RMM:   4    -0.646594986680E+03   -0.73783E-04   -0.29021E-04  8630   0.559E-02    0.154E-01
RMM:   5    -0.646594854653E+03    0.13203E-03   -0.11199E-04  6979   0.380E-02    0.553E-02
RMM:   6    -0.646594850242E+03    0.44103E-05   -0.66948E-05  6029   0.322E-02
  45 F= -.64659485E+03 E0= -.64654064E+03  d E =-.325098E-03
       N       E                     dE             d eps       ncg     rms          rms(c)
DAV:   1    -0.646593522136E+03    0.13325E-02   -0.12180E-01  8400   0.173E+00    0.132E-01
RMM:   2    -0.646595275470E+03   -0.17533E-02   -0.18126E-02 12789   0.371E-01    0.269E-01
RMM:   3    -0.646595035344E+03    0.24013E-03   -0.17190E-03 10669   0.159E-01    0.145E-01
RMM:   4    -0.646595143239E+03   -0.10790E-03   -0.65037E-04 10129   0.811E-02    0.224E-01
RMM:   5    -0.646594873599E+03    0.26964E-03   -0.23409E-04  7820   0.574E-02    0.609E-02
RMM:   6    -0.646594937791E+03   -0.64192E-04   -0.22560E-04  8662   0.442E-02    0.128E-01
RMM:   7    -0.646594876836E+03    0.60955E-04   -0.98355E-05  6842   0.355E-02    0.742E-02
RMM:   8    -0.646594860123E+03    0.16713E-04   -0.64988E-05  5721   0.290E-02    0.451E-02
RMM:   9    -0.646594850250E+03    0.98728E-05   -0.39050E-05  5463   0.211E-02
  46 F= -.64659485E+03 E0= -.64654069E+03  d E =-.325106E-03
       N       E                     dE             d eps       ncg     rms          rms(c)
DAV:   1    -0.646594721535E+03    0.13859E-03   -0.19233E-02  8496   0.685E-01    0.539E-02
RMM:   2    -0.646595044041E+03   -0.32251E-03   -0.29039E-03 12740   0.144E-01    0.135E-01
RMM:   3    -0.646594953924E+03    0.90118E-04   -0.20697E-04  7314   0.587E-02    0.616E-02
RMM:   4    -0.646594975027E+03   -0.21103E-04   -0.74800E-05  6166   0.354E-02    0.909E-02
RMM:   5    -0.646594931773E+03    0.43254E-04   -0.35384E-05  5257   0.276E-02    0.459E-02
RMM:   6    -0.646594926578E+03    0.51954E-05   -0.20339E-05  5056   0.205E-02
  47 F= -.64659493E+03 E0= -.64654074E+03  d E =-.401434E-03
       N       E                     dE             d eps       ncg     rms          rms(c)
DAV:   1    -0.646594839939E+03    0.91834E-04   -0.71013E-03  9216   0.420E-01    0.446E-02
RMM:   2    -0.646595252472E+03   -0.41253E-03   -0.12575E-03 11843   0.982E-02    0.257E-01
RMM:   3    -0.646594920040E+03    0.33243E-03   -0.18655E-04  6861   0.636E-02    0.398E-02
RMM:   4    -0.646594932634E+03   -0.12594E-04   -0.64037E-05  5997   0.290E-02    0.630E-02
RMM:   5    -0.646594914857E+03    0.17777E-04   -0.23324E-05  5035   0.218E-02    0.353E-02
RMM:   6    -0.646594909414E+03    0.54431E-05   -0.11674E-05  4822   0.160E-02
  48 F= -.64659491E+03 E0= -.64654072E+03  d E =-.384270E-03
       N       E                     dE             d eps       ncg     rms          rms(c)
DAV:   1    -0.646594909366E+03    0.54912E-05   -0.10778E-03  9696   0.162E-01    0.250E-02
RMM:   2    -0.646595047639E+03   -0.13827E-03   -0.24676E-04  8158   0.508E-02    0.143E-01
RMM:   3    -0.646594921831E+03    0.12581E-03   -0.55653E-05  5531   0.397E-02    0.298E-02
RMM:   4    -0.646594917212E+03    0.46197E-05   -0.12140E-05  4446   0.159E-02
  49 F= -.64659492E+03 E0= -.64654073E+03  d E =-.392068E-03
       N       E                     dE             d eps       ncg     rms          rms(c)
DAV:   1    -0.646594806234E+03    0.11560E-03   -0.33406E-02  9792   0.923E-01    0.146E-01
RMM:   2    -0.646598381490E+03   -0.35753E-02   -0.80640E-03 11282   0.281E-01    0.655E-01
RMM:   3    -0.646595170129E+03    0.32114E-02   -0.16108E-03  8899   0.166E-01    0.149E-01
RMM:   4    -0.646595087352E+03    0.82777E-04   -0.41477E-04  9271   0.624E-02    0.816E-02
RMM:   5    -0.646595077536E+03    0.98162E-05   -0.10895E-04  7213   0.308E-02    0.841E-02
RMM:   6    -0.646595044672E+03    0.32864E-04   -0.35258E-05  5259   0.253E-02    0.396E-02
RMM:   7    -0.646595054465E+03   -0.97920E-05   -0.37077E-05  5325   0.232E-02
  50 F= -.64659505E+03 E0= -.64654092E+03  d E =-.137253E-03
       N       E                     dE             d eps       ncg     rms          rms(c)
DAV:   1    -0.646593973510E+03    0.10712E-02   -0.14268E-01  9624   0.192E+00    0.297E-01
RMM:   2    -0.646608728416E+03   -0.14755E-01   -0.34330E-02 11241   0.578E-01    0.134E+00
RMM:   3    -0.646595690098E+03    0.13038E-01   -0.68129E-03  9546   0.346E-01    0.355E-01
RMM:   4    -0.646595190176E+03    0.49992E-03   -0.18405E-03 10228   0.123E-01    0.157E-01
RMM:   5    -0.646595180711E+03    0.94646E-05   -0.58242E-04 10205   0.578E-02    0.186E-01
RMM:   6    -0.646595024267E+03    0.15644E-03   -0.17274E-04  7380   0.501E-02    0.848E-02
RMM:   7    -0.646595071015E+03   -0.46747E-04   -0.20248E-04  9200   0.421E-02    0.127E-01
RMM:   8    -0.646594989975E+03    0.81040E-04   -0.95764E-05  6965   0.394E-02    0.399E-02
RMM:   9    -0.646594993952E+03   -0.39772E-05   -0.61009E-05  6077   0.246E-02
  51 F= -.64659499E+03 E0= -.64654091E+03  d E =-.767402E-04
       N       E                     dE             d eps       ncg     rms          rms(c)
DAV:   1    -0.646594861994E+03    0.12798E-03   -0.32127E-02  9576   0.907E-01    0.136E-01
RMM:   2    -0.646597844340E+03   -0.29823E-02   -0.73049E-03 11662   0.265E-01    0.598E-01
RMM:   3    -0.646595204546E+03    0.26398E-02   -0.14120E-03  9200   0.158E-01    0.145E-01
RMM:   4    -0.646595129908E+03    0.74639E-04   -0.37423E-04 10194   0.601E-02    0.805E-02
RMM:   5    -0.646595115299E+03    0.14609E-04   -0.10418E-04  7571   0.297E-02    0.840E-02
RMM:   6    -0.646595082729E+03    0.32570E-04   -0.35164E-05  5235   0.274E-02    0.405E-02
RMM:   7    -0.646595092553E+03   -0.98237E-05   -0.38533E-05  5441   0.238E-02
  52 F= -.64659509E+03 E0= -.64654100E+03  d E =-.175341E-03
       N       E                     dE             d eps       ncg     rms          rms(c)
DAV:   1    -0.646595014306E+03    0.68423E-04   -0.98956E-03  9960   0.511E-01    0.841E-02
RMM:   2    -0.646596217979E+03   -0.12037E-02   -0.24888E-03 10541   0.156E-01    0.392E-01
RMM:   3    -0.646595134897E+03    0.10831E-02   -0.53397E-04  7898   0.104E-01    0.104E-01
RMM:   4    -0.646595087216E+03    0.47681E-04   -0.14656E-04  7996   0.426E-02    0.402E-02
RMM:   5    -0.646595079180E+03    0.80360E-05   -0.34036E-05  5561   0.193E-02
  53 F= -.64659508E+03 E0= -.64654095E+03  d E =-.161968E-03
       N       E                     dE             d eps       ncg     rms          rms(c)
DAV:   1    -0.646595072103E+03    0.15113E-04   -0.27803E-03  9528   0.285E-01    0.258E-02
RMM:   2    -0.646595302181E+03   -0.23008E-03   -0.52398E-04 10227   0.607E-02    0.202E-01
RMM:   3    -0.646595109049E+03    0.19313E-03   -0.73452E-05  5710   0.422E-02    0.174E-02
RMM:   4    -0.646595111834E+03   -0.27854E-05   -0.18542E-05  5000   0.174E-02
  54 F= -.64659511E+03 E0= -.64654097E+03  d E =-.326541E-04
       N       E                     dE             d eps       ncg     rms          rms(c)
DAV:   1    -0.646595094142E+03    0.14906E-04   -0.29678E-03  9072   0.293E-01    0.151E-02
RMM:   2    -0.646595170685E+03   -0.76542E-04   -0.48323E-04 10659   0.575E-02    0.811E-02
RMM:   3    -0.646595141198E+03    0.29487E-04   -0.51618E-05  5291   0.370E-02    0.122E-02
RMM:   4    -0.646595142591E+03   -0.13933E-05   -0.11650E-05  4664   0.158E-02
  55 F= -.64659514E+03 E0= -.64654103E+03  d E =-.634112E-04
       N       E                     dE             d eps       ncg     rms          rms(c)
DAV:   1    -0.646595017925E+03    0.12327E-03   -0.11619E-02  8448   0.580E-01    0.233E-02
RMM:   2    -0.646595204571E+03   -0.18665E-03   -0.18394E-03 11733   0.111E-01    0.484E-02
RMM:   3    -0.646595213179E+03   -0.86079E-05   -0.15618E-04  6746   0.481E-02    0.429E-02
RMM:   4    -0.646595211694E+03    0.14852E-05   -0.27942E-05  5103   0.255E-02
  56 F= -.64659521E+03 E0= -.64654113E+03  d E =-.132514E-03
       N       E                     dE             d eps       ncg     rms          rms(c)
DAV:   1    -0.646594585490E+03    0.62769E-03   -0.46428E-02  8400   0.115E+00    0.452E-02
RMM:   2    -0.646595330065E+03   -0.74458E-03   -0.75287E-03 12564   0.222E-01    0.681E-02
RMM:   3    -0.646595352175E+03   -0.22110E-04   -0.47137E-04 10061   0.638E-02    0.847E-02
RMM:   4    -0.646595335432E+03    0.16743E-04   -0.69270E-05  5875   0.315E-02    0.612E-02
RMM:   5    -0.646595316482E+03    0.18950E-04   -0.34953E-05  5303   0.229E-02    0.242E-02
RMM:   6    -0.646595319373E+03   -0.28905E-05   -0.21161E-05  5165   0.157E-02
  57 F= -.64659532E+03 E0= -.64654125E+03  d E =-.240193E-03
       N       E                     dE             d eps       ncg     rms          rms(c)
DAV:   1    -0.646592519826E+03    0.27967E-02   -0.18350E-01  8400   0.231E+00    0.902E-02
RMM:   2    -0.646595503976E+03   -0.29841E-02   -0.29998E-02 12697   0.438E-01    0.140E-01
RMM:   3    -0.646595535928E+03   -0.31953E-04   -0.17330E-03 11043   0.124E-01    0.137E-01
RMM:   4    -0.646595510827E+03    0.25102E-04   -0.34603E-04  8892   0.579E-02    0.122E-01
RMM:   5    -0.646595435982E+03    0.74845E-04   -0.12667E-04  6346   0.328E-02    0.446E-02
RMM:   6    -0.646595447139E+03   -0.11157E-04   -0.77624E-05  6118   0.247E-02    0.643E-02
RMM:   7    -0.646595427598E+03    0.19541E-04   -0.12961E-04  8766   0.264E-02    0.380E-02
RMM:   8    -0.646595424250E+03    0.33486E-05   -0.22964E-05  5089   0.202E-02
  58 F= -.64659542E+03 E0= -.64654141E+03  d E =-.345070E-03
       N       E                     dE             d eps       ncg     rms          rms(c)
DAV:   1    -0.646594815155E+03    0.61244E-03   -0.37768E-02  8400   0.105E+00    0.440E-02
RMM:   2    -0.646595490841E+03   -0.67569E-03   -0.63236E-03 12593   0.201E-01    0.117E-01
RMM:   3    -0.646595435916E+03    0.54924E-04   -0.37379E-04  9383   0.621E-02    0.539E-02
RMM:   4    -0.646595442389E+03   -0.64728E-05   -0.88798E-05  6295   0.288E-02
  59 F= -.64659544E+03 E0= -.64654147E+03  d E =-.363209E-03
       N       E                     dE             d eps       ncg     rms          rms(c)
DAV:   1    -0.646595308791E+03    0.12713E-03   -0.80240E-03  9144   0.487E-01    0.293E-02
RMM:   2    -0.646595572015E+03   -0.26322E-03   -0.13486E-03 11255   0.939E-02    0.178E-01
RMM:   3    -0.646595427857E+03    0.14416E-03   -0.10509E-04  6170   0.480E-02    0.247E-02
RMM:   4    -0.646595438680E+03   -0.10824E-04   -0.28250E-05  5145   0.240E-02    0.474E-02
RMM:   5    -0.646595427460E+03    0.11220E-04   -0.12409E-05  4839   0.194E-02    0.851E-03
RMM:   6    -0.646595427761E+03   -0.30073E-06   -0.59567E-06  4703   0.864E-03
  60 F= -.64659543E+03 E0= -.64654143E+03  d E =-.348581E-03
       N       E                     dE             d eps       ncg     rms          rms(c)
DAV:   1    -0.646595532149E+03   -0.10469E-03   -0.22710E-02 10776   0.862E-01    0.153E-01
RMM:   2    -0.646599217732E+03   -0.36856E-02   -0.72289E-03 10852   0.281E-01    0.673E-01
RMM:   3    -0.646595780439E+03    0.34373E-02   -0.16702E-03  8747   0.175E-01    0.157E-01
RMM:   4    -0.646595688141E+03    0.92298E-04   -0.36619E-04  9543   0.630E-02    0.862E-02
RMM:   5    -0.646595677148E+03    0.10993E-04   -0.96878E-05  6989   0.313E-02    0.910E-02
RMM:   6    -0.646595638134E+03    0.39013E-04   -0.39947E-05  5275   0.285E-02    0.422E-02
RMM:   7    -0.646595644261E+03   -0.61268E-05   -0.39355E-05  5336   0.245E-02
  61 F= -.64659564E+03 E0= -.64654164E+03  d E =-.216500E-03
       N       E                     dE             d eps       ncg     rms          rms(c)
DAV:   1    -0.646595318817E+03    0.31932E-03   -0.95473E-02 10776   0.178E+00    0.320E-01
RMM:   2    -0.646611683904E+03   -0.16365E-01   -0.30488E-02 10674   0.578E-01    0.143E+00
RMM:   3    -0.646596453199E+03    0.15231E-01   -0.73922E-03  9426   0.370E-01    0.346E-01
RMM:   4    -0.646595962242E+03    0.49096E-03   -0.16839E-03 10260   0.126E-01    0.167E-01
RMM:   5    -0.646595915000E+03    0.47242E-04   -0.50946E-04 10141   0.586E-02    0.177E-01
RMM:   6    -0.646595776575E+03    0.13843E-03   -0.16464E-04  7285   0.501E-02    0.891E-02
RMM:   7    -0.646595813696E+03   -0.37121E-04   -0.19960E-04  9190   0.415E-02    0.123E-01
RMM:   8    -0.646595731764E+03    0.81931E-04   -0.86253E-05  6690   0.385E-02    0.362E-02
RMM:   9    -0.646595733405E+03   -0.16403E-05   -0.56336E-05  5897   0.236E-02
  62 F= -.64659573E+03 E0= -.64654174E+03  d E =-.305644E-03
       N       E                     dE             d eps       ncg     rms          rms(c)
DAV:   1    -0.646595724553E+03    0.72115E-05   -0.29799E-03 10968   0.313E-01    0.553E-02
RMM:   2    -0.646596202241E+03   -0.47769E-03   -0.91133E-04 10082   0.100E-01    0.251E-01
RMM:   3    -0.646595757080E+03    0.44516E-03   -0.22251E-04  7897   0.689E-02    0.633E-02
RMM:   4    -0.646595739608E+03    0.17472E-04   -0.44586E-05  5742   0.261E-02    0.335E-02
RMM:   5    -0.646595741244E+03   -0.16366E-05   -0.19054E-05  4922   0.217E-02
  63 F= -.64659574E+03 E0= -.64654172E+03  d E =-.313483E-03
       N       E                     dE             d eps       ncg     rms          rms(c)
DAV:   1    -0.646595642552E+03    0.97055E-04   -0.16508E-02 10800   0.735E-01    0.134E-01
RMM:   2    -0.646598486246E+03   -0.28437E-02   -0.52830E-03 10789   0.241E-01    0.599E-01
RMM:   3    -0.646595835734E+03    0.26505E-02   -0.12778E-03  8666   0.153E-01    0.143E-01
RMM:   4    -0.646595750836E+03    0.84899E-04   -0.29110E-04  9244   0.574E-02    0.736E-02
RMM:   5    -0.646595727425E+03    0.23411E-04   -0.79168E-05  6597   0.283E-02    0.544E-02
RMM:   6    -0.646595718230E+03    0.91948E-05   -0.32302E-05  5215   0.260E-02
  64 F= -.64659572E+03 E0= -.64654172E+03  d E =-.290469E-03
       N       E                     dE             d eps       ncg     rms          rms(c)
DAV:   1    -0.646595544324E+03    0.18310E-03   -0.12298E-02  8544   0.690E-01    0.398E-02
RMM:   2    -0.646596014081E+03   -0.46976E-03   -0.26953E-03 12161   0.131E-01    0.207E-01
RMM:   3    -0.646595806545E+03    0.20754E-03   -0.26837E-04  7013   0.739E-02    0.554E-02
RMM:   4    -0.646595808302E+03   -0.17579E-05   -0.65479E-05  5808   0.319E-02
  65 F= -.64659581E+03 E0= -.64654184E+03  d E =-.900721E-04
       N       E                     dE             d eps       ncg     rms          rms(c)
DAV:   1    -0.646595698669E+03    0.10788E-03   -0.70248E-03  8544   0.518E-01    0.255E-02
RMM:   2    -0.646595873008E+03   -0.17434E-03   -0.15057E-03 11588   0.966E-02    0.764E-02
RMM:   3    -0.646595853405E+03    0.19603E-04   -0.13542E-04  5859   0.498E-02    0.361E-02
RMM:   4    -0.646595856792E+03   -0.33863E-05   -0.34385E-05  5334   0.243E-02
  66 F= -.64659586E+03 E0= -.64654188E+03  d E =-.138561E-03
       N       E                     dE             d eps       ncg     rms          rms(c)
DAV:   1    -0.646595348931E+03    0.50447E-03   -0.27979E-02  8400   0.103E+00    0.451E-02
RMM:   2    -0.646596053341E+03   -0.70441E-03   -0.60016E-03 12486   0.191E-01    0.172E-01
RMM:   3    -0.646595941530E+03    0.11181E-03   -0.38337E-04  8888   0.656E-02    0.577E-02
RMM:   4    -0.646595948765E+03   -0.72350E-05   -0.97619E-05  6169   0.320E-02
  67 F= -.64659595E+03 E0= -.64654203E+03  d E =-.230534E-03
       N       E                     dE             d eps       ncg     rms          rms(c)
DAV:   1    -0.646596124490E+03   -0.18296E-03   -0.19016E-02 12048   0.761E-01    0.214E-01
RMM:   2    -0.646602908298E+03   -0.67838E-02   -0.91895E-03 10157   0.358E-01    0.947E-01
RMM:   3    -0.646596134323E+03    0.67740E-02   -0.28761E-03  9016   0.241E-01    0.203E-01
RMM:   4    -0.646595951977E+03    0.18235E-03   -0.48206E-04  9340   0.846E-02    0.109E-01
RMM:   5    -0.646595917480E+03    0.34497E-04   -0.19306E-04  9622   0.409E-02    0.968E-02
RMM:   6    -0.646595879291E+03    0.38190E-04   -0.67854E-05  5853   0.363E-02    0.601E-02
RMM:   7    -0.646595867633E+03    0.11657E-04   -0.57480E-05  5988   0.258E-02    0.453E-02
RMM:   8    -0.646595868149E+03   -0.51578E-06   -0.27409E-05  5091   0.268E-02
  68 F= -.64659587E+03 E0= -.64654199E+03  d E =0.806155E-04
       N       E                     dE             d eps       ncg     rms          rms(c)
DAV:   1    -0.646595936514E+03   -0.68880E-04   -0.20364E-03 12000   0.248E-01    0.704E-02
RMM:   2    -0.646596827676E+03   -0.89116E-03   -0.96024E-04  9210   0.114E-01    0.370E-01
RMM:   3    -0.646595969393E+03    0.85828E-03   -0.33376E-04  7695   0.830E-02    0.105E-01
RMM:   4    -0.646595914051E+03    0.55341E-04   -0.52219E-05  5673   0.329E-02    0.371E-02
RMM:   5    -0.646595918688E+03   -0.46368E-05   -0.22108E-05  5015   0.219E-02
  69 F= -.64659592E+03 E0= -.64654203E+03  d E =0.300764E-04
       N       E                     dE             d eps       ncg     rms          rms(c)
DAV:   1    -0.646595967868E+03   -0.53816E-04   -0.17833E-03 11928   0.241E-01    0.747E-02
RMM:   2    -0.646596911266E+03   -0.94340E-03   -0.10475E-03  9138   0.119E-01    0.380E-01
RMM:   3    -0.646595995724E+03    0.91554E-03   -0.38879E-04  7557   0.926E-02    0.103E-01
RMM:   4    -0.646595938261E+03    0.57463E-04   -0.57619E-05  5795   0.327E-02    0.372E-02
RMM:   5    -0.646595939384E+03   -0.11225E-05   -0.19411E-05  4945   0.208E-02
  70 F= -.64659594E+03 E0= -.64654204E+03  d E =0.938088E-05
       N       E                     dE             d eps       ncg     rms          rms(c)
DAV:   1    -0.646595961817E+03   -0.23556E-04   -0.11906E-03 11928   0.201E-01    0.615E-02
RMM:   2    -0.646596608656E+03   -0.64684E-03   -0.67863E-04  8410   0.941E-02    0.322E-01
RMM:   3    -0.646595984924E+03    0.62373E-03   -0.24443E-04  7076   0.734E-02    0.939E-02
RMM:   4    -0.646595940772E+03    0.44153E-04   -0.43754E-05  5435   0.296E-02    0.374E-02
RMM:   5    -0.646595940583E+03    0.18893E-06   -0.15172E-05  4891   0.198E-02
  71 F= -.64659594E+03 E0= -.64654201E+03  d E =0.818203E-05
       N       E                     dE             d eps       ncg     rms          rms(c)
DAV:   1    -0.646595937014E+03    0.37576E-05   -0.13738E-04 11184   0.698E-02    0.281E-02
RMM:   2    -0.646596118189E+03   -0.18117E-03   -0.13206E-04  6594   0.411E-02    0.186E-01
RMM:   3    -0.646595937017E+03    0.18117E-03   -0.57900E-05  5475   0.360E-02    0.317E-02
RMM:   4    -0.646595931984E+03    0.50335E-05   -0.73663E-06  4310   0.116E-02
  72 F= -.64659593E+03 E0= -.64654199E+03  d E =0.167808E-04
       N       E                     dE             d eps       ncg     rms          rms(c)
DAV:   1    -0.646595930339E+03    0.66786E-05   -0.26834E-05  6144   0.344E-02    0.195E-02
RMM:   2    -0.646596012990E+03   -0.82651E-04   -0.59293E-05  5988   0.340E-02    0.126E-01
RMM:   3    -0.646595932173E+03    0.80817E-04   -0.27020E-05  5227   0.270E-02    0.299E-02
RMM:   4    -0.646595927220E+03    0.49532E-05   -0.43471E-06  4005   0.850E-03
  73 F= -.64659593E+03 E0= -.64654199E+03  d E =0.215445E-04
       N       E                     dE             d eps       ncg     rms          rms(c)
DAV:   1    -0.646595927430E+03    0.47436E-05   -0.55635E-06  5040   0.157E-02    0.127E-02
RMM:   2    -0.646595980813E+03   -0.53383E-04   -0.26474E-05  5142   0.203E-02    0.104E-01
RMM:   3    -0.646595926935E+03    0.53878E-04   -0.16153E-05  4920   0.202E-02    0.931E-03
RMM:   4    -0.646595926325E+03    0.61002E-06   -0.15108E-06  3619   0.413E-03
  74 F= -.64659593E+03 E0= -.64654199E+03  d E =0.224402E-04
       N       E                     dE             d eps       ncg     rms          rms(c)
DAV:   1    -0.646595926155E+03    0.77920E-06   -0.42897E-06  4968   0.141E-02    0.425E-03
RMM:   2    -0.646595931195E+03   -0.50397E-05   -0.42093E-06  4074   0.101E-02
  75 F= -.64659593E+03 E0= -.64654199E+03  d E =0.175697E-04
       N       E                     dE             d eps       ncg     rms          rms(c)
DAV:   1    -0.646595926143E+03    0.12638E-07   -0.10810E-05  4968   0.230E-02    0.512E-03
RMM:   2    -0.646595932513E+03   -0.63702E-05   -0.42814E-06  4099   0.964E-03
  76 F= -.64659593E+03 E0= -.64654199E+03  d E =0.162518E-04
       N       E                     dE             d eps       ncg     rms          rms(c)
DAV:   1    -0.646595926728E+03   -0.58505E-06   -0.17184E-05  4992   0.228E-02    0.957E-03
RMM:   2    -0.646595956231E+03   -0.29504E-04   -0.13357E-05  4935   0.156E-02    0.784E-02
RMM:   3    -0.646595927116E+03    0.29115E-04   -0.78156E-06  4086   0.149E-02    0.132E-02
RMM:   4    -0.646595925986E+03    0.11308E-05   -0.91139E-07  3104   0.436E-03
  77 F= -.64659593E+03 E0= -.64654199E+03  d E =0.227791E-04
       N       E                     dE             d eps       ncg     rms          rms(c)
DAV:   1    -0.646595925999E+03    0.11171E-05   -0.63235E-07  4968   0.485E-03    0.355E-03
RMM:   2    -0.646595929940E+03   -0.39408E-05   -0.22517E-06  3223   0.673E-03
  78 F= -.64659593E+03 E0= -.64654201E+03  d E =0.188247E-04
       N       E                     dE             d eps       ncg     rms          rms(c)
DAV:   1    -0.646595925985E+03    0.13977E-07   -0.81505E-06  4896   0.176E-02    0.161E-03
RMM:   2    -0.646595926508E+03   -0.52275E-06   -0.37971E-07  2911   0.289E-03
  79 F= -.64659593E+03 E0= -.64654199E+03  d E =0.222567E-04
       N       E                     dE             d eps       ncg     rms          rms(c)
DAV:   1    -0.646595925992E+03   -0.67012E-08   -0.13663E-06  4752   0.723E-03    0.159E-03
RMM:   2    -0.646595926782E+03   -0.79024E-06   -0.38593E-07  2981   0.301E-03
  80 F= -.64659593E+03 E0= -.64654200E+03  d E =0.219825E-04
       N       E                     dE             d eps       ncg     rms          rms(c)
DAV:   1    -0.646595926040E+03   -0.48254E-07   -0.20646E-06  4752   0.763E-03    0.191E-03
RMM:   2    -0.646595927104E+03   -0.10633E-05   -0.45571E-07  2889   0.323E-03
  81 F= -.64659593E+03 E0= -.64654199E+03  d E =0.216612E-04
       N       E                     dE             d eps       ncg     rms          rms(c)
DAV:   1    -0.646595926059E+03   -0.19085E-07   -0.25449E-06  4752   0.890E-03    0.268E-03
RMM:   2    -0.646595928271E+03   -0.22113E-05   -0.94636E-07  2952   0.422E-03
  82 F= -.64659593E+03 E0= -.64654200E+03  d E =0.204941E-04
       N       E                     dE             d eps       ncg     rms          rms(c)
DAV:   1    -0.646595903815E+03    0.22244E-04   -0.28031E-03  8352   0.301E-01    0.150E-02
RMM:   2    -0.646595979021E+03   -0.75205E-04   -0.56887E-04 11024   0.600E-02    0.583E-02
RMM:   3    -0.646595960294E+03    0.18726E-04   -0.30365E-05  5209   0.270E-02    0.225E-02
RMM:   4    -0.646595960300E+03   -0.55443E-08   -0.97151E-06  4238   0.147E-02
  83 F= -.64659596E+03 E0= -.64654204E+03  d E =-.320292E-04
       N       E                     dE             d eps       ncg     rms          rms(c)
DAV:   1    -0.646595851457E+03    0.10884E-03   -0.80769E-03  8304   0.505E-01    0.278E-02
RMM:   2    -0.646596068307E+03   -0.21685E-03   -0.15068E-03 11759   0.101E-01    0.104E-01
RMM:   3    -0.646596004427E+03    0.63880E-04   -0.14618E-04  6312   0.563E-02    0.410E-02
RMM:   4    -0.646596004522E+03   -0.94427E-07   -0.42115E-05  5630   0.253E-02
  84 F= -.64659600E+03 E0= -.64654210E+03  d E =-.762510E-04
       N       E                     dE             d eps       ncg     rms          rms(c)
DAV:   1    -0.646595449642E+03    0.55479E-03   -0.32040E-02  8328   0.101E+00    0.539E-02
RMM:   2    -0.646596297661E+03   -0.84802E-03   -0.62717E-03 12854   0.197E-01    0.190E-01
RMM:   3    -0.646596054450E+03    0.24321E-03   -0.45980E-04  8724   0.806E-02    0.624E-02
RMM:   4    -0.646596064610E+03   -0.10160E-04   -0.15943E-04  7790   0.350E-02    0.647E-02
RMM:   5    -0.646596042024E+03    0.22586E-04   -0.38554E-05  5412   0.242E-02    0.211E-02
RMM:   6    -0.646596046255E+03   -0.42313E-05   -0.20514E-05  5122   0.152E-02
  85 F= -.64659605E+03 E0= -.64654219E+03  d E =-.117984E-03
       N       E                     dE             d eps       ncg     rms          rms(c)
DAV:   1    -0.646596046710E+03   -0.46861E-05   -0.92210E-03 10032   0.498E-01    0.725E-02
RMM:   2    -0.646597020011E+03   -0.97330E-03   -0.22604E-03 10985   0.142E-01    0.376E-01
RMM:   3    -0.646596195727E+03    0.82428E-03   -0.41564E-04  7922   0.865E-02    0.120E-01
RMM:   4    -0.646596127550E+03    0.68176E-04   -0.11049E-04  7086   0.401E-02    0.449E-02
RMM:   5    -0.646596126653E+03    0.89710E-06   -0.41486E-05  5575   0.216E-02
  86 F= -.64659613E+03 E0= -.64654228E+03  d E =-.803982E-04
       N       E                     dE             d eps       ncg     rms          rms(c)
DAV:   1    -0.646595611484E+03    0.51607E-03   -0.83133E-02  9840   0.150E+00    0.220E-01
RMM:   2    -0.646602937513E+03   -0.73260E-02   -0.19705E-02 11325   0.418E-01    0.941E-01
RMM:   3    -0.646596550730E+03    0.63868E-02   -0.34447E-03  9400   0.242E-01    0.252E-01
RMM:   4    -0.646596342396E+03    0.20833E-03   -0.10343E-03  9398   0.979E-02    0.160E-01
RMM:   5    -0.646596207436E+03    0.13496E-03   -0.38124E-04  9969   0.509E-02    0.992E-02
RMM:   6    -0.646596219350E+03   -0.11914E-04   -0.14699E-04  7014   0.476E-02    0.133E-01
RMM:   7    -0.646596160909E+03    0.58441E-04   -0.13105E-04  7862   0.364E-02    0.856E-02
RMM:   8    -0.646596133869E+03    0.27039E-04   -0.62107E-05  5879   0.329E-02    0.497E-02
RMM:   9    -0.646596124304E+03    0.95655E-05   -0.43749E-05  5467   0.235E-02
  87 F= -.64659612E+03 E0= -.64654227E+03  d E =-.780488E-04
       N       E                     dE             d eps       ncg     rms          rms(c)
DAV:   1    -0.646596085250E+03    0.48620E-04   -0.96933E-03  9888   0.510E-01    0.741E-02
RMM:   2    -0.646596907427E+03   -0.82218E-03   -0.22768E-03 11213   0.144E-01    0.314E-01
RMM:   3    -0.646596193150E+03    0.71428E-03   -0.39561E-04  8459   0.860E-02    0.839E-02
RMM:   4    -0.646596170487E+03    0.22664E-04   -0.10046E-04  7171   0.364E-02    0.557E-02
RMM:   5    -0.646596164146E+03    0.63410E-05   -0.33337E-05  5179   0.227E-02
  88 F= -.64659616E+03 E0= -.64654230E+03  d E =-.117891E-03
       N       E                     dE             d eps       ncg     rms          rms(c)
DAV:   1    -0.646596097959E+03    0.72528E-04   -0.91233E-03  9984   0.497E-01    0.804E-02
RMM:   2    -0.646597107653E+03   -0.10097E-02   -0.22601E-03 10821   0.144E-01    0.372E-01
RMM:   3    -0.646596213970E+03    0.89368E-03   -0.44697E-04  7998   0.923E-02    0.108E-01
RMM:   4    -0.646596169722E+03    0.44248E-04   -0.13030E-04  7404   0.422E-02    0.620E-02
RMM:   5    -0.646596167212E+03    0.25096E-05   -0.44205E-05  5509   0.237E-02
  89 F= -.64659617E+03 E0= -.64654231E+03  d E =-.120958E-03
       N       E                     dE             d eps       ncg     rms          rms(c)
DAV:   1    -0.646596141124E+03    0.28598E-04   -0.11947E-03 11496   0.185E-01    0.461E-02
RMM:   2    -0.646596647624E+03   -0.50650E-03   -0.46575E-04  8060   0.714E-02    0.310E-01
RMM:   3    -0.646596153054E+03    0.49457E-03   -0.17617E-04  6657   0.624E-02    0.495E-02
RMM:   4    -0.646596142408E+03    0.10646E-04   -0.25947E-05  5090   0.212E-02    0.432E-02
RMM:   5    -0.646596136819E+03    0.55885E-05   -0.12178E-05  4697   0.180E-02
  90 F= -.64659614E+03 E0= -.64654227E+03  d E =-.905646E-04
       N       E                     dE             d eps       ncg     rms          rms(c)
DAV:   1    -0.646596058373E+03    0.84035E-04   -0.54704E-03  8592   0.437E-01    0.269E-02
RMM:   2    -0.646596283848E+03   -0.22548E-03   -0.12327E-03 11018   0.834E-02    0.146E-01
RMM:   3    -0.646596171070E+03    0.11278E-03   -0.77621E-05  6003   0.419E-02    0.430E-02
RMM:   4    -0.646596165546E+03    0.55233E-05   -0.22480E-05  5101   0.203E-02
  91 F= -.64659617E+03 E0= -.64654232E+03  d E =-.287270E-04
