<?xml version="1.0" encoding="ISO-8859-1"?>
<modeling>
 <generator>
  <i name="program" type="string">vasp </i>
  <i name="version" type="string">5.4.4.18Apr17-6-g9f103f2a35  </i>
  <i name="subversion" type="string">(build Oct 18 2021 20:38:43) complex            parallel </i>
  <i name="platform" type="string">LinuxIFC </i>
  <i name="date" type="string">2024 06 18 </i>
  <i name="time" type="string">15:44:32 </i>
 </generator>
 <incar>
  <i type="string" name="SYSTEM">HECN</i>
  <i type="int" name="ISTART">     0</i>
  <i type="string" name="PREC">normal</i>
  <i type="string" name="ALGO">Fast</i>
  <i type="int" name="ICHARG">     2</i>
  <i type="int" name="NELM">    60</i>
  <i type="int" name="IBRION">     2</i>
  <i name="EDIFF">      0.00001000</i>
  <i name="EDIFFG">     -0.01000000</i>
  <i type="int" name="NSW">   100</i>
  <i type="int" name="ISIF">     3</i>
  <i name="ENCUT">    400.00000000</i>
  <i name="POTIM">      0.50000000</i>
  <i type="logical" name="LREAL"> F  </i>
  <i type="int" name="ISMEAR">     0</i>
  <i name="SIGMA">      0.10000000</i>
  <i type="logical" name="LWAVE"> F  </i>
  <i type="logical" name="LCHARG"> F  </i>
  <v type="int" name="KPOINT_BSE">    -1     0     0     0</v>
  <i type="int" name="NELM">    60</i>
 </incar>
 <structure name="primitive_cell" >
  <crystal>
   <varray name="basis" >
    <v>       8.93249989       0.00000000       0.00000000 </v>
    <v>       0.00575300       9.05559834       0.00000000 </v>
    <v>       0.03210180      -0.01574346       8.93712807 </v>
   </varray>
   <i name="volume">    722.91652451 </i>
   <varray name="rec_basis" >
    <v>       0.11195074      -0.00007112      -0.00040225 </v>
    <v>       0.00000000       0.11042893       0.00019453 </v>
    <v>       0.00000000       0.00000000       0.11189277 </v>
   </varray>
  </crystal>
  <varray name="positions" >
   <v>      -0.00311999      -0.00795003      -0.00075998 </v>
   <v>      -0.25232999      -0.00252000       0.01202000 </v>
   <v>      -0.00162995      -0.25686004       0.00460000 </v>
   <v>      -0.00280000      -0.00228008       0.25899999 </v>
   <v>       0.00281000       0.25024000       0.00130000 </v>
   <v>      -0.01103011       0.00202000      -0.26291001 </v>
   <v>       0.26146999      -0.00015998      -0.00704004 </v>
   <v>      -0.00135002      -0.22426001       0.26102000 </v>
   <v>      -0.25720997      -0.02130006      -0.23549005 </v>
   <v>       0.23780002       0.01082000      -0.25392002 </v>
   <v>      -0.24282000      -0.25897003       0.01100000 </v>
   <v>       0.24762001      -0.25026001      -0.00025994 </v>
   <v>      -0.00485996      -0.25507996      -0.25488003 </v>
   <v>      -0.24281000       0.25603001      -0.00408003 </v>
   <v>       0.25398003      -0.00285005       0.24912000 </v>
   <v>       0.24788999       0.24839000      -0.00342003 </v>
   <v>      -0.00562996       0.23617001       0.26379999 </v>
   <v>      -0.25120996      -0.01212001       0.26967001 </v>
   <v>       0.00201000       0.25541000      -0.26105999 </v>
   <v>       0.24177002      -0.24659003      -0.24981998 </v>
   <v>      -0.24963995      -0.25112000      -0.25243996 </v>
   <v>      -0.24255004       0.24437997      -0.25103001 </v>
   <v>       0.25133999      -0.25041998       0.24910999 </v>
   <v>      -0.24367000      -0.26108997       0.25767000 </v>
   <v>      -0.24686002       0.24616999       0.25492002 </v>
   <v>       0.24982001       0.24942998       0.24825000 </v>
   <v>       0.24900999       0.25315000      -0.25146000 </v>
   <v>      -0.48411003       0.01358000      -0.01924992 </v>
   <v>      -0.00158006      -0.49023002      -0.01386996 </v>
   <v>       0.02362000      -0.00216999       0.49557002 </v>
   <v>      -0.49480995      -0.23869001       0.00855000 </v>
   <v>      -0.49285006      -0.00023001       0.24673000 </v>
   <v>      -0.24160996      -0.49684002       0.00288000 </v>
   <v>      -0.00999997      -0.23784997       0.49746000 </v>
   <v>      -0.00948001       0.48088003       0.24100999 </v>
   <v>       0.24446000      -0.00176004      -0.49712002 </v>
   <v>      -0.26367999       0.00417000      -0.48937000 </v>
   <v>       0.24328000      -0.49927003      -0.00489006 </v>
   <v>      -0.49572003       0.24673000       0.00262000 </v>
   <v>      -0.00796004      -0.49944001      -0.24861998 </v>
   <v>      -0.00195991       0.24229999      -0.49871997 </v>
   <v>      -0.49991002       0.00061000      -0.26528002 </v>
   <v>      -0.26123997      -0.47171998      -0.26185001 </v>
   <v>       0.49950005      -0.24518001      -0.25182996 </v>
   <v>       0.24457999      -0.24951001       0.49983999 </v>
   <v>      -0.24599997      -0.27062001       0.49116997 </v>
   <v>      -0.49520997       0.24631001      -0.25289998 </v>
   <v>       0.24803003      -0.49835000       0.24955001 </v>
   <v>      -0.26448999      -0.48531996       0.26666001 </v>
   <v>      -0.49167000       0.25676999       0.25376001 </v>
   <v>      -0.49620997      -0.26073003       0.25905001 </v>
   <v>      -0.24692999       0.26163001      -0.49466998 </v>
   <v>       0.25272001       0.24823001      -0.49984997 </v>
   <v>       0.25679999       0.49462002      -0.25454998 </v>
   <v>       0.47957999      -0.01691999       0.49717999 </v>
   <v>      -0.49498994       0.49745998      -0.00165997 </v>
   <v>      -0.00572008      -0.49550001       0.49779000 </v>
   <v>      -0.49436004       0.23264998       0.49544997 </v>
   <v>      -0.49424994      -0.25041998       0.49720000 </v>
   <v>      -0.49299998      -0.49666998       0.25878999 </v>
   <v>      -0.49498997      -0.49782002      -0.26087997 </v>
   <v>      -0.25963999      -0.49803000      -0.49932997 </v>
   <v>       0.25841001      -0.49937998      -0.49870999 </v>
   <v>      -0.49461000      -0.47166995       0.49917999 </v>
  </varray>
 </structure>
 <varray name="primitive_index" >
  <v type="int" >        1 </v>
  <v type="int" >       25 </v>
  <v type="int" >       38 </v>
  <v type="int" >       34 </v>
  <v type="int" >       23 </v>
  <v type="int" >       29 </v>
  <v type="int" >       22 </v>
  <v type="int" >       59 </v>
  <v type="int" >       58 </v>
  <v type="int" >       56 </v>
  <v type="int" >        9 </v>
  <v type="int" >       18 </v>
  <v type="int" >       12 </v>
  <v type="int" >       17 </v>
  <v type="int" >        2 </v>
  <v type="int" >       14 </v>
  <v type="int" >        8 </v>
  <v type="int" >       16 </v>
  <v type="int" >       10 </v>
  <v type="int" >       45 </v>
  <v type="int" >       49 </v>
  <v type="int" >       30 </v>
  <v type="int" >       36 </v>
  <v type="int" >       39 </v>
  <v type="int" >       24 </v>
  <v type="int" >       21 </v>
  <v type="int" >       42 </v>
  <v type="int" >       53 </v>
  <v type="int" >       54 </v>
  <v type="int" >       61 </v>
  <v type="int" >       28 </v>
  <v type="int" >       26 </v>
  <v type="int" >       40 </v>
  <v type="int" >       47 </v>
  <v type="int" >       27 </v>
  <v type="int" >       43 </v>
  <v type="int" >       31 </v>
  <v type="int" >       37 </v>
  <v type="int" >       35 </v>
  <v type="int" >       48 </v>
  <v type="int" >       44 </v>
  <v type="int" >       33 </v>
  <v type="int" >       63 </v>
  <v type="int" >        7 </v>
  <v type="int" >       20 </v>
  <v type="int" >       64 </v>
  <v type="int" >        5 </v>
  <v type="int" >        3 </v>
  <v type="int" >       60 </v>
  <v type="int" >       15 </v>
  <v type="int" >       55 </v>
  <v type="int" >       11 </v>
  <v type="int" >       19 </v>
  <v type="int" >       13 </v>
  <v type="int" >       57 </v>
  <v type="int" >        4 </v>
  <v type="int" >        6 </v>
  <v type="int" >       32 </v>
  <v type="int" >       51 </v>
  <v type="int" >       41 </v>
  <v type="int" >       52 </v>
  <v type="int" >       50 </v>
  <v type="int" >       46 </v>
  <v type="int" >       62 </v>
 </varray>
 <kpoints>
  <generation param="Gamma">
   <v type="int" name="divisions">       3        3        3 </v>
   <v name="usershift">      0.00000000       0.00000000       0.00000000 </v>
   <v name="genvec1">      0.33333333      -0.00000000      -0.00000000 </v>
   <v name="genvec2">      0.00000000       0.33333333       0.00000000 </v>
   <v name="genvec3">      0.00000000       0.00000000       0.33333333 </v>
   <v name="shift">      0.00000000       0.00000000       0.00000000 </v>
  </generation>
  <varray name="kpointlist" >
   <v>       0.00000000       0.00000000       0.00000000 </v>
   <v>       0.33333333       0.00000000       0.00000000 </v>
   <v>       0.00000000       0.33333333       0.00000000 </v>
   <v>       0.33333333       0.33333333       0.00000000 </v>
   <v>      -0.33333333       0.33333333       0.00000000 </v>
   <v>       0.00000000       0.00000000       0.33333333 </v>
   <v>       0.33333333       0.00000000       0.33333333 </v>
   <v>      -0.33333333       0.00000000       0.33333333 </v>
   <v>       0.00000000       0.33333333       0.33333333 </v>
   <v>       0.33333333       0.33333333       0.33333333 </v>
   <v>      -0.33333333       0.33333333       0.33333333 </v>
   <v>       0.00000000      -0.33333333       0.33333333 </v>
   <v>       0.33333333      -0.33333333       0.33333333 </v>
   <v>      -0.33333333      -0.33333333       0.33333333 </v>
  </varray>
  <varray name="weights" >
   <v>       0.03703704 </v>
   <v>       0.07407407 </v>
   <v>       0.07407407 </v>
   <v>       0.07407407 </v>
   <v>       0.07407407 </v>
   <v>       0.07407407 </v>
   <v>       0.07407407 </v>
   <v>       0.07407407 </v>
   <v>       0.07407407 </v>
   <v>       0.07407407 </v>
   <v>       0.07407407 </v>
   <v>       0.07407407 </v>
   <v>       0.07407407 </v>
   <v>       0.07407407 </v>
  </varray>
 </kpoints>
 <parameters>
  <separator name="general" >
   <i type="string" name="SYSTEM">HECN</i>
   <i type="logical" name="LCOMPAT"> F  </i>
  </separator>
  <separator name="electronic" >
   <i type="string" name="PREC">normal</i>
   <i name="ENMAX">    400.00000000</i>
   <i name="ENAUG">    644.87300000</i>
   <i name="EDIFF">      0.00001000</i>
   <i type="int" name="IALGO">    68</i>
   <i type="int" name="IWAVPR">    11</i>
   <i type="int" name="NBANDS">   288</i>
   <i name="NELECT">    475.00000000</i>
   <i type="int" name="TURBO">     0</i>
   <i type="int" name="IRESTART">     0</i>
   <i type="int" name="NREBOOT">     0</i>
   <i type="int" name="NMIN">     0</i>
   <i name="EREF">      0.00000000</i>
   <separator name="electronic smearing" >
    <i type="int" name="ISMEAR">     0</i>
    <i name="SIGMA">      0.10000000</i>
    <i name="KSPACING">      0.50000000</i>
    <i type="logical" name="KGAMMA"> T  </i>
   </separator>
   <separator name="electronic projectors" >
    <i type="logical" name="LREAL"> F  </i>
    <v name="ROPT">      0.00000000      0.00000000      0.00000000      0.00000000      0.00000000      0.00000000      0.00000000</v>
    <i type="int" name="LMAXPAW">  -100</i>
    <i type="int" name="LMAXMIX">     2</i>
    <i type="logical" name="NLSPLINE"> F  </i>
   </separator>
   <separator name="electronic startup" >
    <i type="int" name="ISTART">     0</i>
    <i type="int" name="ICHARG">     2</i>
    <i type="int" name="INIWAV">     1</i>
   </separator>
   <separator name="electronic spin" >
    <i type="int" name="ISPIN">     1</i>
    <i type="logical" name="LNONCOLLINEAR"> F  </i>
    <v name="MAGMOM">      1.00000000      1.00000000      1.00000000      1.00000000      1.00000000      1.00000000      1.00000000      1.00000000      1.00000000      1.00000000      1.00000000      1.00000000      1.00000000      1.00000000      1.00000000      1.00000000      1.00000000      1.00000000      1.00000000      1.00000000
      1.00000000      1.00000000      1.00000000      1.00000000      1.00000000      1.00000000      1.00000000      1.00000000      1.00000000      1.00000000      1.00000000      1.00000000      1.00000000      1.00000000      1.00000000      1.00000000      1.00000000      1.00000000      1.00000000      1.00000000
      1.00000000      1.00000000      1.00000000      1.00000000      1.00000000      1.00000000      1.00000000      1.00000000      1.00000000      1.00000000      1.00000000      1.00000000      1.00000000      1.00000000      1.00000000      1.00000000      1.00000000      1.00000000      1.00000000      1.00000000
      1.00000000      1.00000000      1.00000000      1.00000000</v>
    <i name="NUPDOWN">     -1.00000000</i>
    <i type="logical" name="LSORBIT"> F  </i>
    <v name="SAXIS">      0.00000000      0.00000000      1.00000000</v>
    <i type="logical" name="LSPIRAL"> F  </i>
    <v name="QSPIRAL">      0.00000000      0.00000000      0.00000000</v>
    <i type="logical" name="LZEROZ"> F  </i>
   </separator>
   <separator name="electronic exchange-correlation" >
    <i type="logical" name="LASPH"> F  </i>
    <i type="logical" name="LMETAGGA"> F  </i>
   </separator>
   <separator name="electronic convergence" >
    <i type="int" name="NELM">    60</i>
    <i type="int" name="NELMDL">    -5</i>
    <i type="int" name="NELMIN">     2</i>
    <i name="ENINI">    400.00000000</i>
    <separator name="electronic convergence detail" >
     <i type="logical" name="LDIAG"> T  </i>
     <i type="logical" name="LSUBROT"> F  </i>
     <i name="WEIMIN">      0.00100000</i>
     <i name="EBREAK">      0.00000001</i>
     <i name="DEPER">      0.30000000</i>
     <i type="int" name="NRMM">     4</i>
     <i name="TIME">      0.40000000</i>
    </separator>
   </separator>
   <separator name="electronic mixer" >
    <i name="AMIX">      0.40000000</i>
    <i name="BMIX">      1.00000000</i>
    <i name="AMIN">      0.10000000</i>
    <i name="AMIX_MAG">      1.60000000</i>
    <i name="BMIX_MAG">      1.00000000</i>
    <separator name="electronic mixer details" >
     <i type="int" name="IMIX">     4</i>
     <i type="logical" name="MIXFIRST"> F  </i>
     <i type="int" name="MAXMIX">   -45</i>
     <i name="WC">    100.00000000</i>
     <i type="int" name="INIMIX">     1</i>
     <i type="int" name="MIXPRE">     1</i>
     <i type="int" name="MREMOVE">     5</i>
    </separator>
   </separator>
   <separator name="electronic dipolcorrection" >
    <i type="logical" name="LDIPOL"> F  </i>
    <i type="logical" name="LMONO"> F  </i>
    <i type="int" name="IDIPOL">     0</i>
    <i name="EPSILON">      1.00000000</i>
    <v name="DIPOL">   -100.00000000   -100.00000000   -100.00000000</v>
    <i name="EFIELD">      0.00000000</i>
   </separator>
  </separator>
  <separator name="grids" >
   <i type="int" name="NGX">    48</i>
   <i type="int" name="NGY">    48</i>
   <i type="int" name="NGZ">    48</i>
   <i type="int" name="NGXF">    96</i>
   <i type="int" name="NGYF">    96</i>
   <i type="int" name="NGZF">    96</i>
   <i type="logical" name="ADDGRID"> F  </i>
  </separator>
  <separator name="ionic" >
   <i type="int" name="NSW">   100</i>
   <i type="int" name="IBRION">     2</i>
   <i type="int" name="MDALGO">     0</i>
   <i type="int" name="ISIF">     3</i>
   <i name="PSTRESS">      0.00000000</i>
   <i name="EDIFFG">     -0.01000000</i>
   <i type="int" name="NFREE">     1</i>
   <i name="POTIM">      0.50000000</i>
   <i name="SMASS">     -3.00000000</i>
   <i name="SCALEE">      1.00000000</i>
  </separator>
  <separator name="ionic md" >
   <i name="TEBEG">      0.00010000</i>
   <i name="TEEND">      0.00010000</i>
   <i type="int" name="NBLOCK">     1</i>
   <i type="int" name="KBLOCK">   100</i>
   <i type="int" name="NPACO">   256</i>
   <i name="APACO">     16.00000000</i>
  </separator>
  <separator name="symmetry" >
   <i type="int" name="ISYM">     2</i>
   <i name="SYMPREC">      0.00001000</i>
  </separator>
  <separator name="dos" >
   <i type="int" name="LORBIT">     0</i>
   <v name="RWIGS">     -1.00000000     -1.00000000     -1.00000000     -1.00000000     -1.00000000     -1.00000000     -1.00000000</v>
   <i type="int" name="NEDOS">   301</i>
   <i name="EMIN">     10.00000000</i>
   <i name="EMAX">    -10.00000000</i>
   <i name="EFERMI">      0.00000000</i>
  </separator>
  <separator name="writing" >
   <i type="int" name="NWRITE">     2</i>
   <i type="logical" name="LWAVE"> F  </i>
   <i type="logical" name="LDOWNSAMPLE"> F  </i>
   <i type="logical" name="LCHARG"> F  </i>
   <i type="logical" name="LPARD"> F  </i>
   <i type="logical" name="LVTOT"> F  </i>
   <i type="logical" name="LVHAR"> F  </i>
   <i type="logical" name="LELF"> F  </i>
   <i type="logical" name="LOPTICS"> F  </i>
   <v name="STM">      0.00000000      0.00000000      0.00000000      0.00000000      0.00000000      0.00000000      0.00000000</v>
  </separator>
  <separator name="performance" >
   <i type="int" name="NPAR">    24</i>
   <i type="int" name="NSIM">     4</i>
   <i type="int" name="NBLK">    -1</i>
   <i type="logical" name="LPLANE"> T  </i>
   <i type="logical" name="LSCALAPACK"> T  </i>
   <i type="logical" name="LSCAAWARE"> F  </i>
   <i type="logical" name="LSCALU"> F  </i>
   <i type="logical" name="LASYNC"> F  </i>
   <i type="logical" name="LORBITALREAL"> F  </i>
  </separator>
  <separator name="miscellaneous" >
   <i type="int" name="IDIOT">     3</i>
   <i type="int" name="ISPECIAL">     0</i>
   <i type="logical" name="LMUSIC"> F  </i>
   <v name="POMASS">    178.49000000    183.85000000     91.22400000     14.00100000     12.01100000     51.99600000     95.94000000</v>
   <v name="DARWINR">      0.00000000      0.00000000      0.00000000      0.00000000      0.00000000      0.00000000      0.00000000</v>
   <v name="DARWINV">      1.00000000      1.00000000      1.00000000      1.00000000      1.00000000      1.00000000      1.00000000</v>
   <i type="logical" name="LCORR"> T  </i>
  </separator>
  <i type="logical" name="GGA_COMPAT"> T  </i>
  <i type="logical" name="LBERRY"> F  </i>
  <i type="int" name="ICORELEVEL">     0</i>
  <i type="logical" name="LDAU"> F  </i>
  <i type="int" name="I_CONSTRAINED_M">     0</i>
  <separator name="electronic exchange-correlation" >
   <i type="string" name="GGA">--</i>
   <i type="int" name="VOSKOWN">     0</i>
   <i type="logical" name="LHFCALC"> F  </i>
   <i type="string" name="PRECFOCK"></i>
   <i type="logical" name="LSYMGRAD"> F  </i>
   <i type="logical" name="LHFONE"> F  </i>
   <i type="logical" name="LRHFCALC"> F  </i>
   <i type="logical" name="LTHOMAS"> F  </i>
   <i type="logical" name="LMODELHF"> F  </i>
   <i name="ENCUT4O">     -1.00000000</i>
   <i type="int" name="EXXOEP">     0</i>
   <i type="int" name="FOURORBIT">     0</i>
   <i name="AEXX">      0.00000000</i>
   <i name="HFALPHA">      0.00000000</i>
   <i name="MCALPHA">      0.00000000</i>
   <i name="ALDAX">      1.00000000</i>
   <i name="AGGAX">      1.00000000</i>
   <i name="ALDAC">      1.00000000</i>
   <i name="AGGAC">      1.00000000</i>
   <i type="int" name="NKREDX">     1</i>
   <i type="int" name="NKREDY">     1</i>
   <i type="int" name="NKREDZ">     1</i>
   <i type="logical" name="SHIFTRED"> F  </i>
   <i type="logical" name="ODDONLY"> F  </i>
   <i type="logical" name="EVENONLY"> F  </i>
   <i type="int" name="LMAXFOCK">     0</i>
   <i type="int" name="NMAXFOCKAE">     0</i>
   <i type="logical" name="LFOCKAEDFT"> F  </i>
   <i name="HFSCREEN">      0.00000000</i>
   <i name="HFSCREENC">      0.00000000</i>
   <i type="int" name="NBANDSGWLOW">     0</i>
  </separator>
  <separator name="vdW DFT" >
   <i type="logical" name="LUSE_VDW"> F  </i>
   <i name="Zab_VDW">     -0.84910000</i>
   <i name="PARAM1">      0.12340000</i>
   <i name="PARAM2">      1.00000000</i>
   <i name="PARAM3">      0.00000000</i>
  </separator>
  <separator name="model GW" >
   <i type="int" name="MODEL_GW">     0</i>
   <i name="MODEL_EPS0">      6.77734242</i>
   <i name="MODEL_ALPHA">      1.00000000</i>
  </separator>
  <separator name="linear response parameters" >
   <i type="logical" name="LEPSILON"> F  </i>
   <i type="logical" name="LRPA"> F  </i>
   <i type="logical" name="LNABLA"> F  </i>
   <i type="logical" name="LVEL"> F  </i>
   <i type="int" name="KINTER">     0</i>
   <i name="CSHIFT">      0.10000000</i>
   <i name="OMEGAMAX">     -1.00000000</i>
   <i name="DEG_THRESHOLD">      0.00200000</i>
   <i name="RTIME">     -0.10000000</i>
   <i name="WPLASMAI">      0.00000000</i>
   <v name="DFIELD">      0.00000000      0.00000000      0.00000000</v>
   <v name="WPLASMA">      0.00000000      0.00000000      0.00000000      0.00000000      0.00000000      0.00000000      0.00000000      0.00000000      0.00000000</v>
  </separator>
  <separator name="orbital magnetization" >
   <i type="logical" name="NUCIND"> F  </i>
   <v name="MAGPOS">      0.00000000      0.00000000      0.00000000</v>
   <i type="logical" name="LNICSALL"> T  </i>
   <i type="logical" name="ORBITALMAG"> F  </i>
   <i type="logical" name="LMAGBLOCH"> F  </i>
   <i type="logical" name="LCHIMAG"> F  </i>
   <i type="logical" name="LGAUGE"> T  </i>
   <i type="int" name="MAGATOM">     0</i>
   <v name="MAGDIPOL">      0.00000000      0.00000000      0.00000000</v>
   <v name="AVECCONST">      0.00000000      0.00000000      0.00000000</v>
  </separator>
  <separator name="response functions" >
   <i type="logical" name="LADDER"> F  </i>
   <i type="logical" name="LRPAFORCE"> F  </i>
   <i type="logical" name="LFXC"> F  </i>
   <i type="logical" name="LHARTREE"> T  </i>
   <i type="int" name="IBSE">     0</i>
   <v type="int" name="KPOINT">    -1     0     0     0</v>
   <i type="logical" name="LTCTE"> F  </i>
   <i type="logical" name="LTETE"> F  </i>
   <i type="logical" name="LTRIPLET"> F  </i>
   <i type="logical" name="LFXCEPS"> F  </i>
   <i type="logical" name="LFXHEG"> F  </i>
   <i type="int" name="NATURALO">     2</i>
   <i type="logical" name="L2ORDER"> F  </i>
   <i type="logical" name="LMP2LT"> F  </i>
   <i type="logical" name="LUSEW"> F  </i>
   <i name="ENCUTGW">     -2.00000000</i>
   <i name="ENCUTGWSOFT">     -2.00000000</i>
   <i name="ENCUTLF">     -1.00000000</i>
   <i type="int" name="LMAXMP2">    -1</i>
   <i name="SCISSOR">      0.00000000</i>
   <i type="int" name="NOMEGA">     0</i>
   <i type="int" name="NOMEGAR">     0</i>
   <i type="int" name="NBANDSGW">    -1</i>
   <i type="int" name="NBANDSO">    -1</i>
   <i type="int" name="NBANDSV">    -1</i>
   <i type="int" name="NELM">    60</i>
   <i type="int" name="NELMHF">     1</i>
   <i type="int" name="DIM">     3</i>
   <i type="int" name="ANTIRES">     0</i>
   <i name="OMEGAMAX">    -30.00000000</i>
   <i name="OMEGAMIN">    -30.00000000</i>
   <i name="OMEGATL">   -200.00000000</i>
   <i type="int" name="OMEGAGRID">   140</i>
   <i name="CSHIFT">     -0.10000000</i>
   <i type="logical" name="SELFENERGY"> F  </i>
   <i type="logical" name="LSPECTRAL"> F  </i>
   <i type="logical" name="LSPECTRALGW"> F  </i>
   <i type="logical" name="LSINGLES"> F  </i>
   <i type="logical" name="LFERMIGW"> F  </i>
   <i type="logical" name="ODDONLYGW"> F  </i>
   <i type="logical" name="EVENONLYGW"> F  </i>
   <i type="int" name="NKREDLFX">     1</i>
   <i type="int" name="NKREDLFY">     1</i>
   <i type="int" name="NKREDLFZ">     1</i>
   <i type="int" name="MAXMEM">  2800</i>
   <i type="int" name="TELESCOPE">     0</i>
   <i type="int" name="TAUPAR">     1</i>
   <i type="int" name="OMEGAPAR">    -1</i>
   <i name="LAMBDA">      1.00000000</i>
  </separator>
  <separator name="External order field" >
   <i name="OFIELD_KAPPA">      0.00000000</i>
   <v name="OFIELD_K">      0.00000000      0.00000000      0.00000000</v>
   <i name="OFIELD_Q6_NEAR">      0.00000000</i>
   <i name="OFIELD_Q6_FAR">      0.00000000</i>
   <i name="OFIELD_A">      0.00000000</i>
  </separator>
 </parameters>
 <atominfo>
  <atoms>      64 </atoms>
  <types>       7 </types>
  <array name="atoms" >
   <dimension dim="1">ion</dimension>
   <field type="string">element</field>
   <field type="int">atomtype</field>
   <set>
    <rc><c>Hf</c><c>   1</c></rc>
    <rc><c>Hf</c><c>   1</c></rc>
    <rc><c>Hf</c><c>   1</c></rc>
    <rc><c>Hf</c><c>   1</c></rc>
    <rc><c>Hf</c><c>   1</c></rc>
    <rc><c>Hf</c><c>   1</c></rc>
    <rc><c>Hf</c><c>   1</c></rc>
    <rc><c>W </c><c>   2</c></rc>
    <rc><c>W </c><c>   2</c></rc>
    <rc><c>W </c><c>   2</c></rc>
    <rc><c>W </c><c>   2</c></rc>
    <rc><c>W </c><c>   2</c></rc>
    <rc><c>W </c><c>   2</c></rc>
    <rc><c>Zr</c><c>   3</c></rc>
    <rc><c>Zr</c><c>   3</c></rc>
    <rc><c>Zr</c><c>   3</c></rc>
    <rc><c>Zr</c><c>   3</c></rc>
    <rc><c>Zr</c><c>   3</c></rc>
    <rc><c>Zr</c><c>   3</c></rc>
    <rc><c>Zr</c><c>   3</c></rc>
    <rc><c>N </c><c>   4</c></rc>
    <rc><c>N </c><c>   4</c></rc>
    <rc><c>N </c><c>   4</c></rc>
    <rc><c>N </c><c>   4</c></rc>
    <rc><c>N </c><c>   4</c></rc>
    <rc><c>N </c><c>   4</c></rc>
    <rc><c>N </c><c>   4</c></rc>
    <rc><c>N </c><c>   4</c></rc>
    <rc><c>N </c><c>   4</c></rc>
    <rc><c>N </c><c>   4</c></rc>
    <rc><c>N </c><c>   4</c></rc>
    <rc><c>N </c><c>   4</c></rc>
    <rc><c>N </c><c>   4</c></rc>
    <rc><c>C </c><c>   5</c></rc>
    <rc><c>C </c><c>   5</c></rc>
    <rc><c>C </c><c>   5</c></rc>
    <rc><c>C </c><c>   5</c></rc>
    <rc><c>C </c><c>   5</c></rc>
    <rc><c>C </c><c>   5</c></rc>
    <rc><c>C </c><c>   5</c></rc>
    <rc><c>C </c><c>   5</c></rc>
    <rc><c>C </c><c>   5</c></rc>
    <rc><c>C </c><c>   5</c></rc>
    <rc><c>C </c><c>   5</c></rc>
    <rc><c>C </c><c>   5</c></rc>
    <rc><c>C </c><c>   5</c></rc>
    <rc><c>C </c><c>   5</c></rc>
    <rc><c>C </c><c>   5</c></rc>
    <rc><c>C </c><c>   5</c></rc>
    <rc><c>C </c><c>   5</c></rc>
    <rc><c>C </c><c>   5</c></rc>
    <rc><c>C </c><c>   5</c></rc>
    <rc><c>Cr</c><c>   6</c></rc>
    <rc><c>Cr</c><c>   6</c></rc>
    <rc><c>Cr</c><c>   6</c></rc>
    <rc><c>Cr</c><c>   6</c></rc>
    <rc><c>Cr</c><c>   6</c></rc>
    <rc><c>Cr</c><c>   6</c></rc>
    <rc><c>Mo</c><c>   7</c></rc>
    <rc><c>Mo</c><c>   7</c></rc>
    <rc><c>Mo</c><c>   7</c></rc>
    <rc><c>Mo</c><c>   7</c></rc>
    <rc><c>Mo</c><c>   7</c></rc>
    <rc><c>Mo</c><c>   7</c></rc>
   </set>
  </array>
  <array name="atomtypes" >
   <dimension dim="1">type</dimension>
   <field type="int">atomspertype</field>
   <field type="string">element</field>
   <field>mass</field>
   <field>valence</field>
   <field type="string">pseudopotential</field>
   <set>
    <rc><c>   7</c><c>Hf</c><c>    178.49000000</c><c>     10.00000000</c><c> PAW_PBE Hf_pv 06Sep2000                </c></rc>
    <rc><c>   6</c><c>W </c><c>    183.85000000</c><c>     12.00000000</c><c> PAW_PBE W_pv 06Sep2000                 </c></rc>
    <rc><c>   7</c><c>Zr</c><c>     91.22400000</c><c>     12.00000000</c><c> PAW_PBE Zr_sv 07Sep2000                </c></rc>
    <rc><c>  13</c><c>N </c><c>     14.00100000</c><c>      5.00000000</c><c> PAW_PBE N 08Apr2002                    </c></rc>
    <rc><c>  19</c><c>C </c><c>     12.01100000</c><c>      4.00000000</c><c> PAW_PBE C 08Apr2002                    </c></rc>
    <rc><c>   6</c><c>Cr</c><c>     51.99600000</c><c>     12.00000000</c><c> PAW_PBE Cr_pv 07Sep2000                </c></rc>
    <rc><c>   6</c><c>Mo</c><c>     95.94000000</c><c>      6.00000000</c><c> PAW_PBE Mo 08Apr2002                   </c></rc>
   </set>
  </array>
 </atominfo>
 <structure name="initialpos" >
  <crystal>
   <varray name="basis" >
    <v>       8.93249989       0.00000000       0.00000000 </v>
    <v>       0.00575300       9.05559834       0.00000000 </v>
    <v>       0.03210180      -0.01574346       8.93712807 </v>
   </varray>
   <i name="volume">    722.91652451 </i>
   <varray name="rec_basis" >
    <v>       0.11195074      -0.00007112      -0.00040225 </v>
    <v>       0.00000000       0.11042893       0.00019453 </v>
    <v>       0.00000000       0.00000000       0.11189277 </v>
   </varray>
  </crystal>
  <varray name="positions" >
   <v>       0.99688001       0.99204997       0.99924002 </v>
   <v>       0.25398003       0.99714995       0.24912000 </v>
   <v>       0.24803003       0.50165000       0.24955001 </v>
   <v>       0.50501006       0.49745998       0.99834003 </v>
   <v>       0.50479003       0.24631001       0.74710002 </v>
   <v>       0.99427992       0.50449999       0.49779000 </v>
   <v>       0.49950005       0.75481999       0.74817004 </v>
   <v>       0.99437004       0.23617001       0.26379999 </v>
   <v>       0.75718000       0.74102998       0.01100000 </v>
   <v>       0.00201000       0.25541000       0.73894001 </v>
   <v>       0.75307001       0.26163001       0.50533002 </v>
   <v>       0.99514004       0.74492004       0.74511997 </v>
   <v>       0.25679999       0.49462002       0.74545002 </v>
   <v>       0.24788999       0.24839000       0.99657997 </v>
   <v>       0.50833000       0.25676999       0.25376001 </v>
   <v>       0.74879004       0.98787999       0.26967001 </v>
   <v>       0.75719000       0.25603001       0.99591997 </v>
   <v>       0.24762001       0.74973999       0.99974006 </v>
   <v>       0.25272001       0.24823001       0.50015003 </v>
   <v>       0.24457999       0.75048999       0.49983999 </v>
   <v>       0.24982001       0.24942998       0.24825000 </v>
   <v>       0.26146999       0.99984002       0.99295996 </v>
   <v>       0.00281000       0.25024000       0.00130000 </v>
   <v>       0.75313998       0.24617000       0.25492002 </v>
   <v>       0.74767001       0.99748000       0.01202000 </v>
   <v>       0.50714994       0.99977000       0.24673000 </v>
   <v>       0.99051999       0.48088002       0.24100998 </v>
   <v>       0.50519005       0.76130999       0.00855000 </v>
   <v>       0.98896989       0.00202000       0.73708999 </v>
   <v>       0.75744996       0.24437997       0.74896999 </v>
   <v>       0.73632001       0.00417000       0.51063000 </v>
   <v>       0.50563996       0.23264999       0.49544997 </v>
   <v>       0.50008998       0.00061000       0.73471998 </v>
   <v>       0.99720000       0.99771992       0.25899999 </v>
   <v>       0.50427997       0.24673000       0.00262000 </v>
   <v>       0.25133999       0.74958002       0.24910999 </v>
   <v>       0.24328000       0.50072997       0.99510994 </v>
   <v>       0.99837005       0.74313996       0.00460000 </v>
   <v>       0.75633000       0.73891003       0.25767000 </v>
   <v>       0.75839004       0.50315998       0.00288000 </v>
   <v>       0.50700002       0.50333002       0.25878999 </v>
   <v>       0.24900999       0.25315000       0.74854000 </v>
   <v>       0.24446000       0.99823996       0.50287998 </v>
   <v>       0.99804009       0.24229999       0.50128003 </v>
   <v>       0.24177002       0.75340997       0.75018002 </v>
   <v>       0.25841001       0.50062002       0.50129001 </v>
   <v>       0.99000004       0.76215003       0.49746000 </v>
   <v>       0.99203996       0.50055999       0.75138002 </v>
   <v>       0.75036005       0.74888000       0.74756004 </v>
   <v>       0.74036002       0.50197000       0.50067003 </v>
   <v>       0.50575006       0.74958002       0.49720000 </v>
   <v>       0.50501003       0.50217998       0.73912003 </v>
   <v>       0.51588997       0.01358000       0.98075008 </v>
   <v>       0.99841994       0.50976998       0.98613004 </v>
   <v>       0.50379003       0.73926997       0.25905001 </v>
   <v>       0.23780002       0.01082000       0.74607998 </v>
   <v>       0.47957999       0.98308000       0.49717999 </v>
   <v>       0.74279003       0.97869994       0.76450995 </v>
   <v>       0.99864998       0.77573999       0.26102000 </v>
   <v>       0.73551001       0.51468004       0.26666001 </v>
   <v>       0.02362000       0.99783001       0.49557002 </v>
   <v>       0.50539000       0.52833005       0.49917999 </v>
   <v>       0.73876003       0.52828003       0.73814999 </v>
   <v>       0.75400003       0.72937999       0.49116997 </v>
  </varray>
 </structure>
 <calculation>
  <scstep>
   <time name="dav">   20.79   20.80</time>
   <time name="total">   20.82   20.84</time>
   <energy>
    <i name="alphaZ">   4135.21830772 </i>
    <i name="ewald"> -35644.40352905 </i>
    <i name="hartreedc">  -6665.47914225 </i>
    <i name="XCdc">   1202.87352241 </i>
    <i name="pawpsdc">  24882.40236898 </i>
    <i name="pawaedc"> -24493.75038314 </i>
    <i name="eentropy">     -0.07739715 </i>
    <i name="bandstr">   1567.39779198 </i>
    <i name="atom">  39985.14320934 </i>
    <i name="e_fr_energy">   4969.32474884 </i>
    <i name="e_wo_entrp">   4969.40214600 </i>
    <i name="e_0_energy">   4969.36344742 </i>
   </energy>
  </scstep>
  <scstep>
   <time name="dav">   21.76   21.82</time>
   <time name="total">   21.76   21.82</time>
   <energy>
    <i name="e_fr_energy">     65.85214258 </i>
    <i name="e_wo_entrp">     65.98092062 </i>
    <i name="e_0_energy">     65.91653160 </i>
   </energy>
  </scstep>
  <scstep>
   <time name="dav">   29.53   30.36</time>
   <time name="total">   29.53   30.36</time>
   <energy>
    <i name="e_fr_energy">   -708.61001564 </i>
    <i name="e_wo_entrp">   -708.50909066 </i>
    <i name="e_0_energy">   -708.55955315 </i>
   </energy>
  </scstep>
  <scstep>
   <time name="dav">   33.65   33.72</time>
   <time name="total">   33.65   33.72</time>
   <energy>
    <i name="e_fr_energy">   -778.96928704 </i>
    <i name="e_wo_entrp">   -778.86224961 </i>
    <i name="e_0_energy">   -778.91576832 </i>
   </energy>
  </scstep>
  <scstep>
   <time name="dav">   34.20   34.21</time>
   <time name="total">   34.45   34.46</time>
   <energy>
    <i name="e_fr_energy">   -783.33146255 </i>
    <i name="e_wo_entrp">   -783.21622148 </i>
    <i name="e_0_energy">   -783.27384202 </i>
   </energy>
  </scstep>
  <scstep>
   <time name="diag">    1.66    1.66</time>
   <time name="diis">   22.15   22.20</time>
   <time name="orth">    0.38    0.38</time>
   <time name="total">   24.46   24.51</time>
   <energy>
    <i name="e_fr_energy">   -956.98381733 </i>
    <i name="e_wo_entrp">   -956.73749647 </i>
    <i name="e_0_energy">   -956.86065690 </i>
   </energy>
  </scstep>
  <scstep>
   <time name="diag">    1.64    1.64</time>
   <time name="diis">   22.61   23.29</time>
   <time name="orth">    0.37    0.38</time>
   <time name="total">   24.89   25.59</time>
   <energy>
    <i name="e_fr_energy">   -648.63534090 </i>
    <i name="e_wo_entrp">   -648.49138710 </i>
    <i name="e_0_energy">   -648.56336400 </i>
   </energy>
  </scstep>
  <scstep>
   <time name="diag">    1.60    1.64</time>
   <time name="diis">   24.65   25.40</time>
   <time name="orth">    0.38    0.38</time>
   <time name="total">   26.91   27.69</time>
   <energy>
    <i name="e_fr_energy">   -658.46428396 </i>
    <i name="e_wo_entrp">   -658.34400271 </i>
    <i name="e_0_energy">   -658.40414334 </i>
   </energy>
  </scstep>
  <scstep>
   <time name="diag">    1.68    1.68</time>
   <time name="diis">   21.69   21.69</time>
   <time name="orth">    0.37    0.38</time>
   <time name="total">   24.01   24.03</time>
   <energy>
    <i name="e_fr_energy">   -650.47241529 </i>
    <i name="e_wo_entrp">   -650.29014767 </i>
    <i name="e_0_energy">   -650.38128148 </i>
   </energy>
  </scstep>
  <scstep>
   <time name="diag">    1.60    1.63</time>
   <time name="diis">   25.06   25.57</time>
   <time name="orth">    0.38    0.38</time>
   <time name="total">   27.32   27.86</time>
   <energy>
    <i name="e_fr_energy">   -644.01518828 </i>
    <i name="e_wo_entrp">   -643.80859627 </i>
    <i name="e_0_energy">   -643.91189228 </i>
   </energy>
  </scstep>
  <scstep>
   <time name="diag">    1.65    1.65</time>
   <time name="diis">   24.76   24.78</time>
   <time name="orth">    0.38    0.38</time>
   <time name="total">   27.07   27.10</time>
   <energy>
    <i name="e_fr_energy">   -645.55153577 </i>
    <i name="e_wo_entrp">   -645.37641613 </i>
    <i name="e_0_energy">   -645.46397595 </i>
   </energy>
  </scstep>
  <scstep>
   <time name="diag">    1.64    1.64</time>
   <time name="diis">   24.27   24.33</time>
   <time name="orth">    0.37    0.37</time>
   <time name="total">   26.56   26.62</time>
   <energy>
    <i name="e_fr_energy">   -642.80351649 </i>
    <i name="e_wo_entrp">   -642.59286445 </i>
    <i name="e_0_energy">   -642.69819047 </i>
   </energy>
  </scstep>
  <scstep>
   <time name="diag">    1.72    1.73</time>
   <time name="diis">   24.34   24.43</time>
   <time name="orth">    0.38    0.38</time>
   <time name="total">   26.72   26.81</time>
   <energy>
    <i name="e_fr_energy">   -643.44005797 </i>
    <i name="e_wo_entrp">   -643.24687409 </i>
    <i name="e_0_energy">   -643.34346603 </i>
   </energy>
  </scstep>
  <scstep>
   <time name="diag">    1.65    1.66</time>
   <time name="diis">   25.32   25.43</time>
   <time name="orth">    0.37    0.38</time>
   <time name="total">   27.62   27.74</time>
   <energy>
    <i name="e_fr_energy">   -642.68293010 </i>
    <i name="e_wo_entrp">   -642.47245151 </i>
    <i name="e_0_energy">   -642.57769081 </i>
   </energy>
  </scstep>
  <scstep>
   <time name="diag">    1.64    1.65</time>
   <time name="diis">   24.92   25.04</time>
   <time name="orth">    0.37    0.38</time>
   <time name="total">   27.21   27.34</time>
   <energy>
    <i name="e_fr_energy">   -643.08848965 </i>
    <i name="e_wo_entrp">   -642.91489539 </i>
    <i name="e_0_energy">   -643.00169252 </i>
   </energy>
  </scstep>
  <scstep>
   <time name="diag">    1.61    1.64</time>
   <time name="diis">   24.40   24.56</time>
   <time name="orth">    0.37    0.37</time>
   <time name="total">   26.66   26.86</time>
   <energy>
    <i name="e_fr_energy">   -642.53988698 </i>
    <i name="e_wo_entrp">   -642.33258576 </i>
    <i name="e_0_energy">   -642.43623637 </i>
   </energy>
  </scstep>
  <scstep>
   <time name="diag">    1.64    1.64</time>
   <time name="diis">   25.63   25.72</time>
   <time name="orth">    0.38    0.38</time>
   <time name="total">   27.93   28.02</time>
   <energy>
    <i name="e_fr_energy">   -642.61027815 </i>
    <i name="e_wo_entrp">   -642.40845917 </i>
    <i name="e_0_energy">   -642.50936866 </i>
   </energy>
  </scstep>
  <scstep>
   <time name="diag">    1.65    1.65</time>
   <time name="diis">   25.82   25.86</time>
   <time name="orth">    0.37    0.37</time>
   <time name="total">   28.12   28.16</time>
   <energy>
    <i name="e_fr_energy">   -642.50314998 </i>
    <i name="e_wo_entrp">   -642.29363540 </i>
    <i name="e_0_energy">   -642.39839269 </i>
   </energy>
  </scstep>
  <scstep>
   <time name="diag">    1.66    1.67</time>
   <time name="diis">   25.62   25.67</time>
   <time name="orth">    0.38    0.38</time>
   <time name="total">   27.93   28.00</time>
   <energy>
    <i name="e_fr_energy">   -642.51711201 </i>
    <i name="e_wo_entrp">   -642.30834589 </i>
    <i name="e_0_energy">   -642.41272895 </i>
   </energy>
  </scstep>
  <scstep>
   <time name="diag">    1.63    1.66</time>
   <time name="diis">   24.69   25.53</time>
   <time name="orth">    0.37    0.38</time>
   <time name="total">   26.96   27.86</time>
   <energy>
    <i name="e_fr_energy">   -642.50283797 </i>
    <i name="e_wo_entrp">   -642.29425039 </i>
    <i name="e_0_energy">   -642.39854418 </i>
   </energy>
  </scstep>
  <scstep>
   <time name="diag">    1.63    1.64</time>
   <time name="diis">   24.40   24.46</time>
   <time name="orth">    0.37    0.37</time>
   <time name="total">   26.69   26.75</time>
   <energy>
    <i name="e_fr_energy">   -642.49925750 </i>
    <i name="e_wo_entrp">   -642.29079147 </i>
    <i name="e_0_energy">   -642.39502448 </i>
   </energy>
  </scstep>
  <scstep>
   <time name="diag">    1.64    1.64</time>
   <time name="diis">   24.23   24.24</time>
   <time name="orth">    0.37    0.37</time>
   <time name="total">   26.52   26.54</time>
   <energy>
    <i name="e_fr_energy">   -642.49939364 </i>
    <i name="e_wo_entrp">   -642.29101431 </i>
    <i name="e_0_energy">   -642.39520397 </i>
   </energy>
  </scstep>
  <scstep>
   <time name="diag">    1.60    1.64</time>
   <time name="diis">   22.83   23.51</time>
   <time name="orth">    0.40    0.40</time>
   <time name="total">   25.11   25.84</time>
   <energy>
    <i name="e_fr_energy">   -642.49952504 </i>
    <i name="e_wo_entrp">   -642.29126281 </i>
    <i name="e_0_energy">   -642.39539392 </i>
   </energy>
  </scstep>
  <scstep>
   <time name="diag">    1.68    1.68</time>
   <time name="diis">   21.92   21.93</time>
   <time name="orth">    0.37    0.37</time>
   <time name="total">   24.25   24.28</time>
   <energy>
    <i name="e_fr_energy">   -642.49961189 </i>
    <i name="e_wo_entrp">   -642.29125973 </i>
    <i name="e_0_energy">   -642.39543581 </i>
   </energy>
  </scstep>
  <scstep>
   <time name="diag">    1.63    1.63</time>
   <time name="diis">   18.39   18.41</time>
   <time name="orth">    0.37    0.37</time>
   <time name="total">   20.68   20.70</time>
   <energy>
    <i name="e_fr_energy">   -642.49967479 </i>
    <i name="e_wo_entrp">   -642.29127218 </i>
    <i name="e_0_energy">   -642.39547349 </i>
   </energy>
  </scstep>
  <scstep>
   <time name="diag">    1.67    1.67</time>
   <time name="diis">   14.44   14.46</time>
   <time name="orth">    0.38    0.38</time>
   <time name="total">   16.76   16.79</time>
   <energy>
    <i name="e_fr_energy">   -642.49970868 </i>
    <i name="e_wo_entrp">   -642.29133199 </i>
    <i name="e_0_energy">   -642.39552033 </i>
   </energy>
  </scstep>
  <scstep>
   <time name="diag">    1.60    1.64</time>
   <time name="diis">   12.39   12.85</time>
   <time name="orth">    0.39    0.40</time>
   <time name="total">   14.68   15.19</time>
   <energy>
    <i name="e_fr_energy">   -642.49973234 </i>
    <i name="e_wo_entrp">   -642.29136526 </i>
    <i name="e_0_energy">   -642.39554880 </i>
   </energy>
  </scstep>
  <scstep>
   <time name="diag">    1.66    1.66</time>
   <time name="diis">   12.33   12.34</time>
   <time name="orth">    0.38    0.38</time>
   <time name="total">   14.65   14.66</time>
   <energy>
    <i name="e_fr_energy">   -642.49974586 </i>
    <i name="e_wo_entrp">   -642.29137097 </i>
    <i name="e_0_energy">   -642.39555841 </i>
   </energy>
  </scstep>
  <scstep>
   <time name="diag">    1.60    1.64</time>
   <time name="diis">   11.33   11.70</time>
   <time name="orth">    0.37    0.37</time>
   <time name="total">   13.34   13.74</time>
   <energy>
    <i name="alphaZ">   4135.21830772 </i>
    <i name="ewald"> -35644.40352905 </i>
    <i name="hartreedc">  -6315.31492757 </i>
    <i name="XCdc">   1202.22774016 </i>
    <i name="pawpsdc">  26706.16769465 </i>
    <i name="pawaedc"> -26365.93910645 </i>
    <i name="eentropy">     -0.20837241 </i>
    <i name="bandstr">  -4345.39077022 </i>
    <i name="atom">  39985.14320934 </i>
    <i name="e_fr_energy">   -642.49975384 </i>
    <i name="e_wo_entrp">   -642.29138143 </i>
    <i name="e_0_energy">   -642.39556763 </i>
   </energy>
  </scstep>
  <structure>
   <crystal>
    <varray name="basis" >
     <v>       8.93249989       0.00000000       0.00000000 </v>
     <v>       0.00575300       9.05559834       0.00000000 </v>
     <v>       0.03210180      -0.01574346       8.93712807 </v>
    </varray>
    <i name="volume">    722.91652451 </i>
    <varray name="rec_basis" >
     <v>       0.11195074      -0.00007112      -0.00040225 </v>
     <v>       0.00000000       0.11042893       0.00019453 </v>
     <v>       0.00000000       0.00000000       0.11189277 </v>
    </varray>
   </crystal>
   <varray name="positions" >
    <v>       0.99688001       0.99204997       0.99924002 </v>
    <v>       0.25398003       0.99714995       0.24912000 </v>
    <v>       0.24803003       0.50165000       0.24955001 </v>
    <v>       0.50501006       0.49745998       0.99834003 </v>
    <v>       0.50479003       0.24631001       0.74710002 </v>
    <v>       0.99427992       0.50449999       0.49779000 </v>
    <v>       0.49950005       0.75481999       0.74817004 </v>
    <v>       0.99437004       0.23617001       0.26379999 </v>
    <v>       0.75718000       0.74102998       0.01100000 </v>
    <v>       0.00201000       0.25541000       0.73894001 </v>
    <v>       0.75307001       0.26163001       0.50533002 </v>
    <v>       0.99514004       0.74492004       0.74511997 </v>
    <v>       0.25679999       0.49462002       0.74545002 </v>
    <v>       0.24788999       0.24839000       0.99657997 </v>
    <v>       0.50833000       0.25676999       0.25376001 </v>
    <v>       0.74879004       0.98787999       0.26967001 </v>
    <v>       0.75719000       0.25603001       0.99591997 </v>
    <v>       0.24762001       0.74973999       0.99974006 </v>
    <v>       0.25272001       0.24823001       0.50015003 </v>
    <v>       0.24457999       0.75048999       0.49983999 </v>
    <v>       0.24982001       0.24942998       0.24825000 </v>
    <v>       0.26146999       0.99984002       0.99295996 </v>
    <v>       0.00281000       0.25024000       0.00130000 </v>
    <v>       0.75313998       0.24617000       0.25492002 </v>
    <v>       0.74767001       0.99748000       0.01202000 </v>
    <v>       0.50714994       0.99977000       0.24673000 </v>
    <v>       0.99051999       0.48088002       0.24100998 </v>
    <v>       0.50519005       0.76130999       0.00855000 </v>
    <v>       0.98896989       0.00202000       0.73708999 </v>
    <v>       0.75744996       0.24437997       0.74896999 </v>
    <v>       0.73632001       0.00417000       0.51063000 </v>
    <v>       0.50563996       0.23264999       0.49544997 </v>
    <v>       0.50008998       0.00061000       0.73471998 </v>
    <v>       0.99720000       0.99771992       0.25899999 </v>
    <v>       0.50427997       0.24673000       0.00262000 </v>
    <v>       0.25133999       0.74958002       0.24910999 </v>
    <v>       0.24328000       0.50072997       0.99510994 </v>
    <v>       0.99837005       0.74313996       0.00460000 </v>
    <v>       0.75633000       0.73891003       0.25767000 </v>
    <v>       0.75839004       0.50315998       0.00288000 </v>
    <v>       0.50700002       0.50333002       0.25878999 </v>
    <v>       0.24900999       0.25315000       0.74854000 </v>
    <v>       0.24446000       0.99823996       0.50287998 </v>
    <v>       0.99804009       0.24229999       0.50128003 </v>
    <v>       0.24177002       0.75340997       0.75018002 </v>
    <v>       0.25841001       0.50062002       0.50129001 </v>
    <v>       0.99000004       0.76215003       0.49746000 </v>
    <v>       0.99203996       0.50055999       0.75138002 </v>
    <v>       0.75036005       0.74888000       0.74756004 </v>
    <v>       0.74036002       0.50197000       0.50067003 </v>
    <v>       0.50575006       0.74958002       0.49720000 </v>
    <v>       0.50501003       0.50217998       0.73912003 </v>
    <v>       0.51588997       0.01358000       0.98075008 </v>
    <v>       0.99841994       0.50976998       0.98613004 </v>
    <v>       0.50379003       0.73926997       0.25905001 </v>
    <v>       0.23780002       0.01082000       0.74607998 </v>
    <v>       0.47957999       0.98308000       0.49717999 </v>
    <v>       0.74279003       0.97869994       0.76450995 </v>
    <v>       0.99864998       0.77573999       0.26102000 </v>
    <v>       0.73551001       0.51468004       0.26666001 </v>
    <v>       0.02362000       0.99783001       0.49557002 </v>
    <v>       0.50539000       0.52833005       0.49917999 </v>
    <v>       0.73876003       0.52828003       0.73814999 </v>
    <v>       0.75400003       0.72937999       0.49116997 </v>
   </varray>
  </structure>
  <varray name="forces" >
   <v>      -0.30785514       0.42206544      -1.14050158 </v>
   <v>       1.24695772       0.01949963      -0.63655890 </v>
   <v>      -0.19356564       0.09492505      -0.65095430 </v>
   <v>      -0.40614106       0.51357485       0.11481422 </v>
   <v>       0.08843012      -1.29598347      -0.33964357 </v>
   <v>       0.13454953      -0.82779666       0.13763336 </v>
   <v>      -0.30840477       1.74191395       0.68519918 </v>
   <v>      -0.16823205      -0.95141043       0.49278819 </v>
   <v>       0.44842887      -0.48110563      -0.06645385 </v>
   <v>       1.10464280       0.62283565      -0.70317865 </v>
   <v>       0.39238637      -0.01777370      -0.06475338 </v>
   <v>       0.26566684      -0.57637835       0.66564764 </v>
   <v>      -0.22786557       0.20785081       0.81571320 </v>
   <v>      -0.00055785      -0.10181350      -0.29638046 </v>
   <v>      -0.01515126      -1.25058028      -0.12304106 </v>
   <v>      -1.56636476       0.77040923      -0.03463654 </v>
   <v>      -0.09031523      -0.26586713      -0.19694243 </v>
   <v>       0.41691225       0.17462088      -0.21811451 </v>
   <v>       0.37410929       0.03051863       0.43738796 </v>
   <v>       0.66013173       0.18382852       0.24454816 </v>
   <v>      -0.23637186      -0.00644651       0.21119321 </v>
   <v>      -0.67179704       0.08691540       0.39068316 </v>
   <v>      -0.13403853      -0.37948544       0.05957042 </v>
   <v>       0.67957308       0.18531784       0.37382235 </v>
   <v>      -0.03221403      -0.48442958      -1.24717948 </v>
   <v>      -1.14213849      -0.41121939       0.24969100 </v>
   <v>       0.51034770      -0.39280551       0.56858411 </v>
   <v>       0.67658083      -0.36859055      -0.56770925 </v>
   <v>      -0.16842935       0.09249389       1.10430294 </v>
   <v>      -0.23325589      -0.35312747      -0.74893337 </v>
   <v>       0.15996444       0.41707797       0.44587429 </v>
   <v>       0.49231235      -0.13578555       1.13277457 </v>
   <v>       0.57651884      -0.03029188       0.66185007 </v>
   <v>       0.82152602       1.14606055      -1.10699474 </v>
   <v>       0.06647634       0.02854948      -0.96421033 </v>
   <v>       0.33915736      -0.11441271       0.09559401 </v>
   <v>       0.17396928      -0.10915197      -0.08978351 </v>
   <v>      -0.94407281      -0.35598713      -0.44895422 </v>
   <v>      -0.90132153       0.16863726      -1.46960208 </v>
   <v>       0.35007785       0.92637239       0.01316967 </v>
   <v>      -1.37811599       1.00058191      -0.87456311 </v>
   <v>      -0.24980003      -0.39850357      -0.10032522 </v>
   <v>       1.96120136      -0.04492742       0.60780999 </v>
   <v>      -0.69256945       0.56322431       0.31861709 </v>
   <v>      -0.12415464      -0.14506327      -0.06915902 </v>
   <v>      -0.87598293      -0.06246063       0.03552300 </v>
   <v>       0.27333804      -0.81949275       1.14144247 </v>
   <v>       0.42951234      -0.29697581       0.50861162 </v>
   <v>       0.01567927       1.76473191       0.61832594 </v>
   <v>       1.01942792      -1.35424866       0.43932868 </v>
   <v>      -0.30021736       1.51108843      -0.63429445 </v>
   <v>      -1.12891446      -0.28429991       0.95969807 </v>
   <v>       0.43294757       0.21778322      -0.22729250 </v>
   <v>      -0.31199083       1.22294682      -0.80561390 </v>
   <v>       0.21064538      -0.64300005       0.15668392 </v>
   <v>      -0.28989121       0.07999792      -0.05095529 </v>
   <v>      -0.58292545       0.00605250       0.36940411 </v>
   <v>      -0.54865040      -1.04448801       0.35531088 </v>
   <v>       0.52701238      -0.18906531      -0.68922753 </v>
   <v>       0.15142712      -0.20306321      -1.24755783 </v>
   <v>      -0.94861098       0.50929147       0.50588598 </v>
   <v>      -0.20216632      -0.58308855      -0.52370346 </v>
   <v>       0.30947874      -0.85078224       1.03776489 </v>
   <v>       0.07269319       1.12073631       0.38197015 </v>
  </varray>
  <varray name="stress" >
   <v>     -59.43507585      -2.22658157      -2.58332124 </v>
   <v>      -2.22658147     -70.50055595      -0.93793285 </v>
   <v>      -2.58331956      -0.93793310     -55.04305111 </v>
  </varray>
  <energy>
   <i name="e_fr_energy">   -642.49975384 </i>
   <i name="e_wo_entrp">   -642.39556763 </i>
   <i name="e_0_energy">     -0.20837241 </i>
  </energy>
  <time name="totalsc">  764.85  771.57</time>
 </calculation>
 <calculation>
  <scstep>
   <time name="dav">   25.63   26.38</time>
   <time name="total">   25.91   26.68</time>
   <energy>
    <i name="alphaZ">   4406.72961113 </i>
    <i name="ewald"> -36216.16440929 </i>
    <i name="hartreedc">  -6635.95098210 </i>
    <i name="XCdc">   1239.09801069 </i>
    <i name="pawpsdc">  26706.13928984 </i>
    <i name="pawaedc"> -26365.91101078 </i>
    <i name="eentropy">     -0.12809154 </i>
    <i name="bandstr">  -3770.80769091 </i>
    <i name="atom">  39985.14320934 </i>
    <i name="e_fr_energy">   -651.85206362 </i>
    <i name="e_wo_entrp">   -651.72397208 </i>
    <i name="e_0_energy">   -651.78801785 </i>
   </energy>
  </scstep>
  <scstep>
   <time name="diag">    1.60    1.64</time>
   <time name="diis">   18.07   18.75</time>
   <time name="orth">    0.39    0.39</time>
   <time name="total">   20.34   21.06</time>
   <energy>
    <i name="e_fr_energy">   -771.74219140 </i>
    <i name="e_wo_entrp">   -771.63124791 </i>
    <i name="e_0_energy">   -771.68671966 </i>
   </energy>
  </scstep>
  <scstep>
   <time name="diag">    1.63    1.67</time>
   <time name="diis">   19.74   20.43</time>
   <time name="orth">    0.37    0.38</time>
   <time name="total">   22.01   22.76</time>
   <energy>
    <i name="e_fr_energy">   -646.53678733 </i>
    <i name="e_wo_entrp">   -646.38558543 </i>
    <i name="e_0_energy">   -646.46118638 </i>
   </energy>
  </scstep>
  <scstep>
   <time name="diag">    1.61    1.64</time>
   <time name="diis">   23.11   23.94</time>
   <time name="orth">    0.37    0.37</time>
   <time name="total">   25.36   26.23</time>
   <energy>
    <i name="e_fr_energy">   -647.55626475 </i>
    <i name="e_wo_entrp">   -647.39728901 </i>
    <i name="e_0_energy">   -647.47677688 </i>
   </energy>
  </scstep>
  <scstep>
   <time name="diag">    1.61    1.64</time>
   <time name="diis">   21.39   21.92</time>
   <time name="orth">    0.38    0.38</time>
   <time name="total">   23.66   24.23</time>
   <energy>
    <i name="e_fr_energy">   -645.12651310 </i>
    <i name="e_wo_entrp">   -644.93934739 </i>
    <i name="e_0_energy">   -645.03293025 </i>
   </energy>
  </scstep>
  <scstep>
   <time name="diag">    1.64    1.64</time>
   <time name="diis">   20.70   20.71</time>
   <time name="orth">    0.38    0.38</time>
   <time name="total">   23.00   23.01</time>
   <energy>
    <i name="e_fr_energy">   -646.24966434 </i>
    <i name="e_wo_entrp">   -646.08638750 </i>
    <i name="e_0_energy">   -646.16802592 </i>
   </energy>
  </scstep>
  <scstep>
   <time name="diag">    1.65    1.65</time>
   <time name="diis">   21.75   21.82</time>
   <time name="orth">    0.37    0.37</time>
   <time name="total">   24.05   24.12</time>
   <energy>
    <i name="e_fr_energy">   -644.37025537 </i>
    <i name="e_wo_entrp">   -644.20164690 </i>
    <i name="e_0_energy">   -644.28595113 </i>
   </energy>
  </scstep>
  <scstep>
   <time name="diag">    1.66    1.67</time>
   <time name="diis">   20.74   20.90</time>
   <time name="orth">    0.88    0.93</time>
   <time name="total">   23.60   23.84</time>
   <energy>
    <i name="e_fr_energy">   -644.89838464 </i>
    <i name="e_wo_entrp">   -644.72267474 </i>
    <i name="e_0_energy">   -644.81052969 </i>
   </energy>
  </scstep>
  <scstep>
   <time name="diag">    4.39    4.67</time>
   <time name="diis">   21.74   21.83</time>
   <time name="orth">    0.37    0.37</time>
   <time name="total">   26.85   27.22</time>
   <energy>
    <i name="e_fr_energy">   -644.04420540 </i>
    <i name="e_wo_entrp">   -643.86676096 </i>
    <i name="e_0_energy">   -643.95548318 </i>
   </energy>
  </scstep>
  <scstep>
   <time name="diag">    1.65    1.66</time>
   <time name="diis">   26.25   26.32</time>
   <time name="orth">    0.37    0.37</time>
   <time name="total">   28.57   28.64</time>
   <energy>
    <i name="e_fr_energy">   -644.06610919 </i>
    <i name="e_wo_entrp">   -643.88579340 </i>
    <i name="e_0_energy">   -643.97595129 </i>
   </energy>
  </scstep>
  <scstep>
   <time name="diag">    1.65    1.65</time>
   <time name="diis">   25.17   25.21</time>
   <time name="orth">    0.38    0.38</time>
   <time name="total">   27.47   27.51</time>
   <energy>
    <i name="e_fr_energy">   -644.04368906 </i>
    <i name="e_wo_entrp">   -643.86296207 </i>
    <i name="e_0_energy">   -643.95332557 </i>
   </energy>
  </scstep>
  <scstep>
   <time name="diag">    1.71    1.75</time>
   <time name="diis">   26.16   26.21</time>
   <time name="orth">    0.38    0.38</time>
   <time name="total">   28.51   28.62</time>
   <energy>
    <i name="e_fr_energy">   -644.04654531 </i>
    <i name="e_wo_entrp">   -643.86528015 </i>
    <i name="e_0_energy">   -643.95591273 </i>
   </energy>
  </scstep>
  <scstep>
   <time name="diag">    1.65    1.65</time>
   <time name="diis">   24.91   24.92</time>
   <time name="orth">    0.39    0.39</time>
   <time name="total">   27.22   27.25</time>
   <energy>
    <i name="e_fr_energy">   -644.04968212 </i>
    <i name="e_wo_entrp">   -643.87103720 </i>
    <i name="e_0_energy">   -643.96035966 </i>
   </energy>
  </scstep>
  <scstep>
   <time name="diag">    1.69    1.70</time>
   <time name="diis">   26.05   26.12</time>
   <time name="orth">    0.38    0.38</time>
   <time name="total">   28.40   28.48</time>
   <energy>
    <i name="e_fr_energy">   -644.04648425 </i>
    <i name="e_wo_entrp">   -643.86589344 </i>
    <i name="e_0_energy">   -643.95618885 </i>
   </energy>
  </scstep>
  <scstep>
   <time name="diag">    1.65    1.65</time>
   <time name="diis">   25.86   25.96</time>
   <time name="orth">    0.37    0.37</time>
   <time name="total">   28.17   28.27</time>
   <energy>
    <i name="e_fr_energy">   -644.04832389 </i>
    <i name="e_wo_entrp">   -643.86789241 </i>
    <i name="e_0_energy">   -643.95810815 </i>
   </energy>
  </scstep>
  <scstep>
   <time name="diag">    1.61    1.64</time>
   <time name="diis">   25.41   26.35</time>
   <time name="orth">    0.37    0.38</time>
   <time name="total">   27.67   28.65</time>
   <energy>
    <i name="e_fr_energy">   -644.04926320 </i>
    <i name="e_wo_entrp">   -643.86853560 </i>
    <i name="e_0_energy">   -643.95889940 </i>
   </energy>
  </scstep>
  <scstep>
   <time name="diag">    1.60    1.64</time>
   <time name="diis">   23.76   24.59</time>
   <time name="orth">    0.37    0.38</time>
   <time name="total">   26.01   26.89</time>
   <energy>
    <i name="e_fr_energy">   -644.04939603 </i>
    <i name="e_wo_entrp">   -643.86869402 </i>
    <i name="e_0_energy">   -643.95904502 </i>
   </energy>
  </scstep>
  <scstep>
   <time name="diag">    1.64    1.64</time>
   <time name="diis">   22.69   22.74</time>
   <time name="orth">    0.38    0.38</time>
   <time name="total">   24.99   25.05</time>
   <energy>
    <i name="e_fr_energy">   -644.04947813 </i>
    <i name="e_wo_entrp">   -643.86880170 </i>
    <i name="e_0_energy">   -643.95913992 </i>
   </energy>
  </scstep>
  <scstep>
   <time name="diag">    1.66    1.67</time>
   <time name="diis">   22.81   22.84</time>
   <time name="orth">    0.38    0.38</time>
   <time name="total">   25.13   25.18</time>
   <energy>
    <i name="e_fr_energy">   -644.04950013 </i>
    <i name="e_wo_entrp">   -643.86881614 </i>
    <i name="e_0_energy">   -643.95915814 </i>
   </energy>
  </scstep>
  <scstep>
   <time name="diag">    1.65    1.65</time>
   <time name="diis">   20.69   20.81</time>
   <time name="orth">    0.38    0.38</time>
   <time name="total">   23.00   23.12</time>
   <energy>
    <i name="e_fr_energy">   -644.04951500 </i>
    <i name="e_wo_entrp">   -643.86882867 </i>
    <i name="e_0_energy">   -643.95917184 </i>
   </energy>
  </scstep>
  <scstep>
   <time name="diag">    1.61    1.64</time>
   <time name="diis">   17.99   18.11</time>
   <time name="orth">    0.37    0.37</time>
   <time name="total">   20.00   20.16</time>
   <energy>
    <i name="alphaZ">   4406.72961113 </i>
    <i name="ewald"> -36216.16440929 </i>
    <i name="hartreedc">  -6286.81467030 </i>
    <i name="XCdc">   1219.10064793 </i>
    <i name="pawpsdc">  27481.90066485 </i>
    <i name="pawaedc"> -27143.60773570 </i>
    <i name="eentropy">     -0.18068892 </i>
    <i name="bandstr">  -4090.15614812 </i>
    <i name="atom">  39985.14320934 </i>
    <i name="e_fr_energy">   -644.04951907 </i>
    <i name="e_wo_entrp">   -643.86883016 </i>
    <i name="e_0_energy">   -643.95917462 </i>
   </energy>
  </scstep>
  <structure>
   <crystal>
    <varray name="basis" >
     <v>       8.75193029      -0.00676457      -0.00784838 </v>
     <v>      -0.00122110       8.83845466      -0.00289386 </v>
     <v>       0.02361235      -0.01824128       8.76979205 </v>
    </varray>
    <i name="volume">    678.37555532 </i>
    <varray name="rec_basis" >
     <v>       0.11426024       0.00001569      -0.00030761 </v>
     <v>       0.00008766       0.11314204       0.00023510 </v>
     <v>       0.00010228       0.00003735       0.11402759 </v>
    </varray>
   </crystal>
   <varray name="positions" >
    <v>       0.99523803       0.99428777       0.99308358 </v>
    <v>       0.26072689       0.99724786       0.24568385 </v>
    <v>       0.24699692       0.50214960       0.24603615 </v>
    <v>       0.50281259       0.50019707       0.99895980 </v>
    <v>       0.50527866       0.23940262       0.74526662 </v>
    <v>       0.99500677       0.50009129       0.49853294 </v>
    <v>       0.49781515       0.76410627       0.75186875 </v>
    <v>       0.99345515       0.23110611       0.26646006 </v>
    <v>       0.75960481       0.73846632       0.01064128 </v>
    <v>       0.00798746       0.25872149       0.73514425 </v>
    <v>       0.75519053       0.26153472       0.50498048 </v>
    <v>       0.99656392       0.74185569       0.74871314 </v>
    <v>       0.25555279       0.49573498       0.74985325 </v>
    <v>       0.24789308       0.24784481       0.99498011 </v>
    <v>       0.50825485       0.25010652       0.25309583 </v>
    <v>       0.74032844       0.99198394       0.26948304 </v>
    <v>       0.75670696       0.25461178       0.99485687 </v>
    <v>       0.24987530       0.75066822       0.99856267 </v>
    <v>       0.25473190       0.24839670       0.50251105 </v>
    <v>       0.24813985       0.75147161       0.50116006 </v>
    <v>       0.24853934       0.24939762       0.24939002 </v>
    <v>       0.25783387       0.00030672       0.99506887 </v>
    <v>       0.00208623       0.24821890       0.00162156 </v>
    <v>       0.75680233       0.24716076       0.25693791 </v>
    <v>       0.74752189       0.99488755       0.00528772 </v>
    <v>       0.50097804       0.99758161       0.24807783 </v>
    <v>       0.99326660       0.47879273       0.24407920 </v>
    <v>       0.50885641       0.75934104       0.00548550 </v>
    <v>       0.98803849       0.00252311       0.74305102 </v>
    <v>       0.75620593       0.24249170       0.74492724 </v>
    <v>       0.73717386       0.00639612       0.51303683 </v>
    <v>       0.50827732       0.23193723       0.50156469 </v>
    <v>       0.50319090       0.00045483       0.73829265 </v>
    <v>       0.00165445       0.00381504       0.25302443 </v>
    <v>       0.50465761       0.24687304      -0.00258481 </v>
    <v>       0.25317025       0.74897139       0.24962601 </v>
    <v>       0.24422169       0.50014764       0.99462529 </v>
    <v>       0.99328123       0.74123927       0.00217654 </v>
    <v>       0.75149008       0.73979463       0.24973708 </v>
    <v>       0.76027731       0.50809524       0.00295109 </v>
    <v>       0.49957063       0.50865229       0.25406909 </v>
    <v>       0.24766418       0.25102608       0.74799845 </v>
    <v>       0.25504042       0.99800632       0.50616094 </v>
    <v>       0.99429154       0.24530350       0.50299993 </v>
    <v>       0.24110132       0.75263651       0.74980670 </v>
    <v>       0.25367852       0.50028760       0.50148176 </v>
    <v>       0.99145694       0.75779499       0.50362151 </v>
    <v>       0.99435082       0.49898266       0.75412550 </v>
    <v>       0.75042668       0.75828721       0.75089776 </v>
    <v>       0.74586186       0.49475952       0.50304152 </v>
    <v>       0.50413577       0.75762422       0.49377608 </v>
    <v>       0.49889534       0.50067442       0.74430048 </v>
    <v>       0.51823190       0.01473808       0.97952315 </v>
    <v>       0.99674638       0.51627753       0.98178133 </v>
    <v>       0.50492685       0.73584593       0.25989579 </v>
    <v>       0.23623509       0.01124570       0.74580493 </v>
    <v>       0.47642454       0.98311572       0.49917404 </v>
    <v>       0.73982357       0.97313888       0.76642792 </v>
    <v>       0.00151029       0.77472630       0.25729954 </v>
    <v>       0.73635274       0.51358653       0.25992569 </v>
    <v>       0.01848518       0.00054795       0.49830079 </v>
    <v>       0.50431030       0.52521880       0.49635304 </v>
    <v>       0.74041425       0.52375732       0.74375185 </v>
    <v>       0.75438138       0.73535417       0.49323185 </v>
   </varray>
  </structure>
  <varray name="forces" >
   <v>       0.06634523       0.17091359      -0.65329821 </v>
   <v>      -0.12340400      -0.00927583       0.05818128 </v>
   <v>      -0.63045447      -0.27907950       0.03140389 </v>
   <v>      -0.00020490       0.00101013       0.01868477 </v>
   <v>      -0.12634934      -0.14348098       0.14503647 </v>
   <v>       0.54668867       0.20395269      -0.19147480 </v>
   <v>       0.00661985      -0.27549134      -0.05798432 </v>
   <v>       0.27096611       0.35748522      -0.06144854 </v>
   <v>      -0.22781587       0.44731813      -0.24402537 </v>
   <v>       0.35173277      -0.11142080       0.45986278 </v>
   <v>      -0.40567020      -0.50216834      -0.26956050 </v>
   <v>       0.16518352      -0.45588057       0.57097843 </v>
   <v>      -0.15751288       0.14845681       0.20520413 </v>
   <v>       0.04481376      -0.17505916       0.05638056 </v>
   <v>      -0.23048292       0.41282335      -0.14563228 </v>
   <v>       0.39284263      -0.14810846      -0.35486843 </v>
   <v>      -0.19893150       0.10000827      -0.18882431 </v>
   <v>      -0.13782265       0.39468867       0.06261454 </v>
   <v>       0.08103833       0.07840584      -0.25071348 </v>
   <v>      -0.18385694      -0.09185715      -0.11772570 </v>
   <v>      -0.14927516      -0.11493597       0.03046871 </v>
   <v>      -0.24335760      -0.01953374       0.01405761 </v>
   <v>      -0.06983205      -0.14104376       0.17572845 </v>
   <v>       0.04221409       0.18777469      -0.13463782 </v>
   <v>      -0.32511401      -0.09886467      -0.75907544 </v>
   <v>      -0.28373821      -0.39494602      -0.10911515 </v>
   <v>       0.15573971       0.14265856       0.16304942 </v>
   <v>       0.11424969       0.10616153      -0.27091521 </v>
   <v>      -0.01287900       0.01933466       0.34538760 </v>
   <v>       0.10338899      -0.02856956      -0.25210386 </v>
   <v>       0.50897602      -0.08923616       0.46574670 </v>
   <v>       0.28407745       0.27920106       0.00426229 </v>
   <v>       0.45669288       0.04293629       0.65752565 </v>
   <v>      -0.08525685      -0.64378018      -0.37243932 </v>
   <v>      -0.03822537      -0.06876134      -0.06955685 </v>
   <v>       0.35522282       0.05428514      -0.08059970 </v>
   <v>      -0.17899766       0.09613975      -0.05448282 </v>
   <v>       0.72690322       0.12958189       0.03096299 </v>
   <v>      -0.53575196       0.47056345      -0.06962849 </v>
   <v>       0.23217981      -0.54107393       0.00544266 </v>
   <v>      -0.27875721      -0.00923383      -0.32216440 </v>
   <v>       0.25819386      -0.40214350       0.10906085 </v>
   <v>       0.20294529       0.16685977       0.45506168 </v>
   <v>       0.47893869       0.18247085      -0.07054870 </v>
   <v>       0.06184801       0.14687113       0.17139410 </v>
   <v>      -0.06886921       0.06830134      -0.07267686 </v>
   <v>       0.32394266      -0.22645052       0.13321440 </v>
   <v>       0.23132296      -0.30062399       0.26347151 </v>
   <v>      -0.08307890       0.14384774      -0.06073607 </v>
   <v>      -0.12340631       0.21013196      -0.12608950 </v>
   <v>       0.18492841       0.55049040      -0.24612163 </v>
   <v>      -0.26451239       0.18460288       0.02808495 </v>
   <v>       0.25369781      -0.23050846      -0.21819176 </v>
   <v>      -0.17109783       0.57187509      -0.28300470 </v>
   <v>      -0.29273327      -0.28641924       0.19615720 </v>
   <v>      -0.58453989      -0.24051698      -0.13486323 </v>
   <v>       0.29273303       0.42541052       0.26902046 </v>
   <v>      -0.51817256       0.22857621       0.45149834 </v>
   <v>       0.05366719      -0.00110415      -0.44917184 </v>
   <v>      -0.17512395      -0.57978021      -0.67087895 </v>
   <v>       0.13453310       0.19559553       0.62346149 </v>
   <v>      -0.02189065      -0.40055756      -0.29357684 </v>
   <v>       0.00606862      -0.09771388       1.24597562 </v>
   <v>      -0.46157946       0.18888664       0.20875555 </v>
  </varray>
  <varray name="stress" >
   <v>     132.18194582       3.11119528       0.94972912 </v>
   <v>       3.11119482     129.04999319      -1.49144714 </v>
   <v>       0.94972910      -1.49144570     122.67180563 </v>
  </varray>
  <energy>
   <i name="e_fr_energy">   -644.04951907 </i>
   <i name="e_wo_entrp">   -643.95917462 </i>
   <i name="e_0_energy">     -0.18068892 </i>
  </energy>
  <time name="totalsc">  571.60  578.71</time>
 </calculation>
 <calculation>
  <scstep>
   <time name="dav">   28.54   28.56</time>
   <time name="total">   28.83   28.85</time>
   <energy>
    <i name="alphaZ">   4319.57608900 </i>
    <i name="ewald"> -36045.49792109 </i>
    <i name="hartreedc">  -6178.21141342 </i>
    <i name="XCdc">   1207.48661876 </i>
    <i name="pawpsdc">  27481.75419195 </i>
    <i name="pawaedc"> -27143.41038615 </i>
    <i name="eentropy">     -0.19297532 </i>
    <i name="bandstr">  -4272.19565191 </i>
    <i name="atom">  39985.14320934 </i>
    <i name="e_fr_energy">   -645.54823883 </i>
    <i name="e_wo_entrp">   -645.35526351 </i>
    <i name="e_0_energy">   -645.45175117 </i>
   </energy>
  </scstep>
  <scstep>
   <time name="diag">    1.64    1.65</time>
   <time name="diis">   21.47   21.50</time>
   <time name="orth">    0.43    0.43</time>
   <time name="total">   23.83   23.86</time>
   <energy>
    <i name="e_fr_energy">   -677.00303234 </i>
    <i name="e_wo_entrp">   -676.86540750 </i>
    <i name="e_0_energy">   -676.93421992 </i>
   </energy>
  </scstep>
  <scstep>
   <time name="diag">    1.67    1.69</time>
   <time name="diis">   20.68   20.71</time>
   <time name="orth">    0.37    0.37</time>
   <time name="total">   23.00   23.06</time>
   <energy>
    <i name="e_fr_energy">   -645.61892555 </i>
    <i name="e_wo_entrp">   -645.45775756 </i>
    <i name="e_0_energy">   -645.53834156 </i>
   </energy>
  </scstep>
  <scstep>
   <time name="diag">    1.64    1.64</time>
   <time name="diis">   24.38   24.40</time>
   <time name="orth">    0.37    0.37</time>
   <time name="total">   26.67   26.70</time>
   <energy>
    <i name="e_fr_energy">   -644.96429808 </i>
    <i name="e_wo_entrp">   -644.77963289 </i>
    <i name="e_0_energy">   -644.87196549 </i>
   </energy>
  </scstep>
  <scstep>
   <time name="diag">    1.63    1.63</time>
   <time name="diis">   21.89   21.98</time>
   <time name="orth">    0.37    0.37</time>
   <time name="total">   24.18   24.26</time>
   <energy>
    <i name="e_fr_energy">   -644.71663932 </i>
    <i name="e_wo_entrp">   -644.53254330 </i>
    <i name="e_0_energy">   -644.62459131 </i>
   </energy>
  </scstep>
  <scstep>
   <time name="diag">    1.63    1.64</time>
   <time name="diis">   21.78   21.80</time>
   <time name="orth">    0.37    0.37</time>
   <time name="total">   24.07   24.09</time>
   <energy>
    <i name="e_fr_energy">   -644.66817673 </i>
    <i name="e_wo_entrp">   -644.47101708 </i>
    <i name="e_0_energy">   -644.56959690 </i>
   </energy>
  </scstep>
  <scstep>
   <time name="diag">    1.63    1.64</time>
   <time name="diis">   23.44   23.48</time>
   <time name="orth">    0.37    0.37</time>
   <time name="total">   25.73   25.78</time>
   <energy>
    <i name="e_fr_energy">   -644.58342565 </i>
    <i name="e_wo_entrp">   -644.39723449 </i>
    <i name="e_0_energy">   -644.49033007 </i>
   </energy>
  </scstep>
  <scstep>
   <time name="diag">    1.71    1.72</time>
   <time name="diis">   21.92   21.99</time>
   <time name="orth">    0.37    0.37</time>
   <time name="total">   24.29   24.36</time>
   <energy>
    <i name="e_fr_energy">   -644.54655888 </i>
    <i name="e_wo_entrp">   -644.35713161 </i>
    <i name="e_0_energy">   -644.45184525 </i>
   </energy>
  </scstep>
  <scstep>
   <time name="diag">    1.66    1.66</time>
   <time name="diis">   24.88   24.91</time>
   <time name="orth">    0.37    0.37</time>
   <time name="total">   27.20   27.24</time>
   <energy>
    <i name="e_fr_energy">   -644.50460133 </i>
    <i name="e_wo_entrp">   -644.31546555 </i>
    <i name="e_0_energy">   -644.41003344 </i>
   </energy>
  </scstep>
  <scstep>
   <time name="diag">    1.64    1.64</time>
   <time name="diis">   24.32   24.36</time>
   <time name="orth">    0.37    0.37</time>
   <time name="total">   26.61   26.66</time>
   <energy>
    <i name="e_fr_energy">   -644.50883897 </i>
    <i name="e_wo_entrp">   -644.32096961 </i>
    <i name="e_0_energy">   -644.41490429 </i>
   </energy>
  </scstep>
  <scstep>
   <time name="diag">    1.64    1.64</time>
   <time name="diis">   24.94   24.98</time>
   <time name="orth">    0.37    0.37</time>
   <time name="total">   27.22   27.27</time>
   <energy>
    <i name="e_fr_energy">   -644.50097956 </i>
    <i name="e_wo_entrp">   -644.31137364 </i>
    <i name="e_0_energy">   -644.40617660 </i>
   </energy>
  </scstep>
  <scstep>
   <time name="diag">    1.64    1.64</time>
   <time name="diis">   24.24   24.35</time>
   <time name="orth">    0.37    0.37</time>
   <time name="total">   26.53   26.65</time>
   <energy>
    <i name="e_fr_energy">   -644.50119877 </i>
    <i name="e_wo_entrp">   -644.31226978 </i>
    <i name="e_0_energy">   -644.40673428 </i>
   </energy>
  </scstep>
  <scstep>
   <time name="diag">    1.68    1.69</time>
   <time name="diis">   24.67   24.69</time>
   <time name="orth">    0.37    0.38</time>
   <time name="total">   27.01   27.03</time>
   <energy>
    <i name="e_fr_energy">   -644.50054462 </i>
    <i name="e_wo_entrp">   -644.31135951 </i>
    <i name="e_0_energy">   -644.40595207 </i>
   </energy>
  </scstep>
  <scstep>
   <time name="diag">    1.63    1.63</time>
   <time name="diis">   24.71   24.74</time>
   <time name="orth">    0.37    0.37</time>
   <time name="total">   26.99   27.02</time>
   <energy>
    <i name="e_fr_energy">   -644.50105753 </i>
    <i name="e_wo_entrp">   -644.31191197 </i>
    <i name="e_0_energy">   -644.40648475 </i>
   </energy>
  </scstep>
  <scstep>
   <time name="diag">    1.64    1.64</time>
   <time name="diis">   24.69   24.71</time>
   <time name="orth">    0.37    0.37</time>
   <time name="total">   26.99   27.00</time>
   <energy>
    <i name="e_fr_energy">   -644.50136038 </i>
    <i name="e_wo_entrp">   -644.31209983 </i>
    <i name="e_0_energy">   -644.40673011 </i>
   </energy>
  </scstep>
  <scstep>
   <time name="diag">    1.63    1.64</time>
   <time name="diis">   22.56   22.62</time>
   <time name="orth">    0.38    0.38</time>
   <time name="total">   24.86   24.92</time>
   <energy>
    <i name="e_fr_energy">   -644.50141223 </i>
    <i name="e_wo_entrp">   -644.31215701 </i>
    <i name="e_0_energy">   -644.40678462 </i>
   </energy>
  </scstep>
  <scstep>
   <time name="diag">    1.70    1.74</time>
   <time name="diis">   21.75   21.76</time>
   <time name="orth">    0.37    0.37</time>
   <time name="total">   24.10   24.16</time>
   <energy>
    <i name="e_fr_energy">   -644.50142288 </i>
    <i name="e_wo_entrp">   -644.31219835 </i>
    <i name="e_0_energy">   -644.40681061 </i>
   </energy>
  </scstep>
  <scstep>
   <time name="diag">    1.64    1.64</time>
   <time name="diis">   19.82   19.84</time>
   <time name="orth">    0.37    0.37</time>
   <time name="total">   22.11   22.13</time>
   <energy>
    <i name="e_fr_energy">   -644.50143592 </i>
    <i name="e_wo_entrp">   -644.31221482 </i>
    <i name="e_0_energy">   -644.40682537 </i>
   </energy>
  </scstep>
  <scstep>
   <time name="diag">    1.64    1.64</time>
   <time name="diis">   18.33   18.39</time>
   <time name="orth">    0.37    0.37</time>
   <time name="total">   20.37   20.44</time>
   <energy>
    <i name="alphaZ">   4319.57608900 </i>
    <i name="ewald"> -36045.49792109 </i>
    <i name="hartreedc">  -6285.48223752 </i>
    <i name="XCdc">   1213.58802128 </i>
    <i name="pawpsdc">  27213.28366414 </i>
    <i name="pawaedc"> -26874.13494212 </i>
    <i name="eentropy">     -0.18922035 </i>
    <i name="bandstr">  -4170.78810429 </i>
    <i name="atom">  39985.14320934 </i>
    <i name="e_fr_energy">   -644.50144160 </i>
    <i name="e_wo_entrp">   -644.31222125 </i>
    <i name="e_0_energy">   -644.40683143 </i>
   </energy>
  </scstep>
  <structure>
   <crystal>
    <varray name="basis" >
     <v>       8.80823290      -0.00465534      -0.00540121 </v>
     <v>       0.00095347       8.90616127      -0.00199154 </v>
     <v>       0.02625941      -0.01746245       8.82196836 </v>
    </varray>
    <i name="volume">    692.06273614 </i>
    <varray name="rec_basis" >
     <v>       0.11352994      -0.00001223      -0.00033796 </v>
     <v>       0.00005948       0.11228186       0.00022208 </v>
     <v>       0.00006952       0.00002534       0.11335323 </v>
    </varray>
   </crystal>
   <varray name="positions" >
    <v>       0.99576178       0.99357389       0.99504005 </v>
    <v>       0.25858074       0.99721528       0.24677377 </v>
    <v>       0.24732658       0.50199060       0.24715294 </v>
    <v>       0.50351105       0.49932313       0.99876320 </v>
    <v>       0.50512541       0.24160937       0.74584978 </v>
    <v>       0.99477634       0.50149947       0.49829713 </v>
    <v>       0.49834797       0.76113965       0.75069296 </v>
    <v>       0.99374680       0.23272381       0.26561560 </v>
    <v>       0.75883388       0.73928476       0.01075485 </v>
    <v>       0.00608547       0.25766250       0.73634832 </v>
    <v>       0.75451582       0.26156468       0.50509096 </v>
    <v>       0.99611052       0.74283394       0.74757131 </v>
    <v>       0.25594816       0.49537865       0.74845434 </v>
    <v>       0.24789269       0.24801914       0.99548853 </v>
    <v>       0.50828062       0.25223536       0.25330760 </v>
    <v>       0.74302027       0.99067495       0.26954443 </v>
    <v>       0.75686134       0.25506508       0.99519497 </v>
    <v>       0.24915769       0.75037125       0.99893605 </v>
    <v>       0.25409092       0.24834272       0.50176024 </v>
    <v>       0.24700635       0.75115701       0.50073948 </v>
    <v>       0.24894658       0.24940816       0.24902814 </v>
    <v>       0.25899030       0.00015830       0.99439974 </v>
[...]
      </set>
     </set>
    </set>
   </array>
  </eigenvalues>
  <separator name="orbital magnetization" >
   <v name="MAGDIPOLOUT">      0.00000000      0.00000000      0.00000000</v>
  </separator>
  <dos>
   <i name="efermi">      7.59884530 </i>
   <total>
    <array>
     <dimension dim="1">gridpoints</dimension>
     <dimension dim="2">spin</dimension>
     <field>energy</field>
     <field>total</field>
     <field>integrated</field>
     <set>
      <set comment="spin 1">
       <r>   -44.1638     0.0000     0.0000 </r>
       <r>   -43.9739     0.0000     0.0000 </r>
       <r>   -43.7839     0.0000     0.0000 </r>
       <r>   -43.5939     0.0000     0.0000 </r>
       <r>   -43.4039     0.0000     0.0000 </r>
       <r>   -43.2139     0.0000     0.0000 </r>
       <r>   -43.0240     0.0000     0.0000 </r>
       <r>   -42.8340     0.0000     0.0000 </r>
       <r>   -42.6440     0.0000     0.0000 </r>
       <r>   -42.4540     0.0000     0.0000 </r>
       <r>   -42.2640     0.0000     0.0000 </r>
       <r>   -42.0741     0.0000     0.0000 </r>
       <r>   -41.8841     0.0001     0.0000 </r>
       <r>   -41.6941     0.6533     0.1241 </r>
       <r>   -41.5041    21.3261     4.1756 </r>
       <r>   -41.3141     9.5923     5.9980 </r>
       <r>   -41.1242     8.8365     7.6767 </r>
       <r>   -40.9342    22.1380    11.8825 </r>
       <r>   -40.7442     2.0536    12.2726 </r>
       <r>   -40.5542     8.5034    13.8881 </r>
       <r>   -40.3642     0.5889    14.0000 </r>
       <r>   -40.1743     0.0001    14.0000 </r>
       <r>   -39.9843     0.0000    14.0000 </r>
       <r>   -39.7943     0.0000    14.0000 </r>
       <r>   -39.6043     0.0000    14.0000 </r>
       <r>   -39.4143     0.0000    14.0000 </r>
       <r>   -39.2244     0.0000    14.0000 </r>
       <r>   -39.0344     0.0000    14.0000 </r>
       <r>   -38.8444     0.0000    14.0000 </r>
       <r>   -38.6544     0.0000    14.0000 </r>
       <r>   -38.4645     0.0000    14.0000 </r>
       <r>   -38.2745     0.0000    14.0000 </r>
       <r>   -38.0845     0.0000    14.0000 </r>
       <r>   -37.8945     0.0000    14.0000 </r>
       <r>   -37.7045     0.0000    14.0000 </r>
       <r>   -37.5146     0.0000    14.0000 </r>
       <r>   -37.3246     0.0000    14.0000 </r>
       <r>   -37.1346     0.0000    14.0000 </r>
       <r>   -36.9446     0.0000    14.0000 </r>
       <r>   -36.7546     0.0000    14.0000 </r>
       <r>   -36.5647     0.0000    14.0000 </r>
       <r>   -36.3747     0.3745    14.0712 </r>
       <r>   -36.1847     9.2374    15.8261 </r>
       <r>   -35.9947    47.1790    24.7891 </r>
       <r>   -35.8047   108.5468    45.4108 </r>
       <r>   -35.6148    23.8054    49.9334 </r>
       <r>   -35.4248     0.3508    50.0000 </r>
       <r>   -35.2348     0.0000    50.0000 </r>
       <r>   -35.0448     0.0000    50.0000 </r>
       <r>   -34.8548     0.0000    50.0000 </r>
       <r>   -34.6649     0.0000    50.0000 </r>
       <r>   -34.4749     0.0000    50.0000 </r>
       <r>   -34.2849     0.0000    50.0000 </r>
       <r>   -34.0949     0.0000    50.0000 </r>
       <r>   -33.9049     0.0000    50.0000 </r>
       <r>   -33.7150     0.0000    50.0000 </r>
       <r>   -33.5250     0.0000    50.0000 </r>
       <r>   -33.3350     0.0000    50.0000 </r>
       <r>   -33.1450     0.0000    50.0000 </r>
       <r>   -32.9550     0.0000    50.0000 </r>
       <r>   -32.7651     0.0000    50.0000 </r>
       <r>   -32.5751     0.0000    50.0000 </r>
       <r>   -32.3851     0.0032    50.0006 </r>
       <r>   -32.1951     2.4150    50.4594 </r>
       <r>   -32.0051    15.8993    53.4799 </r>
       <r>   -31.8152    52.8338    63.5173 </r>
       <r>   -31.6252    73.0845    77.4018 </r>
       <r>   -31.4352    43.5527    85.6760 </r>
       <r>   -31.2452     1.7049    85.9999 </r>
       <r>   -31.0552     0.0006    86.0000 </r>
       <r>   -30.8653     0.0000    86.0000 </r>
       <r>   -30.6753     0.0000    86.0000 </r>
       <r>   -30.4853     0.0000    86.0000 </r>
       <r>   -30.2953     0.0000    86.0000 </r>
       <r>   -30.1053     0.0000    86.0000 </r>
       <r>   -29.9154     0.0000    86.0000 </r>
       <r>   -29.7254     0.0000    86.0000 </r>
       <r>   -29.5354     0.0000    86.0000 </r>
       <r>   -29.3454     0.0000    86.0000 </r>
       <r>   -29.1554     0.0000    86.0000 </r>
       <r>   -28.9655     0.0000    86.0000 </r>
       <r>   -28.7755     0.0000    86.0000 </r>
       <r>   -28.5855     0.0000    86.0000 </r>
       <r>   -28.3955     0.0000    86.0000 </r>
       <r>   -28.2056     0.0000    86.0000 </r>
       <r>   -28.0156     0.0000    86.0000 </r>
       <r>   -27.8256     0.0000    86.0000 </r>
       <r>   -27.6356     0.0000    86.0000 </r>
       <r>   -27.4456     0.0000    86.0000 </r>
       <r>   -27.2557     0.0000    86.0000 </r>
       <r>   -27.0657     0.0000    86.0000 </r>
       <r>   -26.8757     0.0000    86.0000 </r>
       <r>   -26.6857     0.0000    86.0000 </r>
       <r>   -26.4957     0.0000    86.0000 </r>
       <r>   -26.3058     0.0000    86.0000 </r>
       <r>   -26.1158     0.0000    86.0000 </r>
       <r>   -25.9258     0.0000    86.0000 </r>
       <r>   -25.7358     0.0000    86.0000 </r>
       <r>   -25.5458     0.0000    86.0000 </r>
       <r>   -25.3559     0.0000    86.0000 </r>
       <r>   -25.1659     0.0000    86.0000 </r>
       <r>   -24.9759     0.0000    86.0000 </r>
       <r>   -24.7859     0.0000    86.0000 </r>
       <r>   -24.5959     0.0000    86.0000 </r>
       <r>   -24.4060     0.0000    86.0000 </r>
       <r>   -24.2160     0.0000    86.0000 </r>
       <r>   -24.0260     0.0000    86.0000 </r>
       <r>   -23.8360     0.0050    86.0010 </r>
       <r>   -23.6460     4.9192    86.9355 </r>
       <r>   -23.4561    24.6867    91.6255 </r>
       <r>   -23.2661     5.9699    92.7596 </r>
       <r>   -23.0761    78.5615   107.6847 </r>
       <r>   -22.8861    78.8869   122.6716 </r>
       <r>   -22.6961    25.9856   127.6084 </r>
       <r>   -22.5062     2.0597   127.9997 </r>
       <r>   -22.3162     0.0018   128.0000 </r>
       <r>   -22.1262     0.0000   128.0000 </r>
       <r>   -21.9362     0.0000   128.0000 </r>
       <r>   -21.7462     0.0000   128.0000 </r>
       <r>   -21.5563     0.0000   128.0000 </r>
       <r>   -21.3663     0.0000   128.0000 </r>
       <r>   -21.1763     0.0000   128.0000 </r>
       <r>   -20.9863     0.0000   128.0000 </r>
       <r>   -20.7963     0.0000   128.0000 </r>
       <r>   -20.6064     0.0000   128.0000 </r>
       <r>   -20.4164     0.0009   128.0002 </r>
       <r>   -20.2264     1.5219   128.2893 </r>
       <r>   -20.0364    11.9502   130.5596 </r>
       <r>   -19.8464    35.4704   137.2983 </r>
       <r>   -19.6565    39.3346   144.7710 </r>
       <r>   -19.4665    31.9003   150.8314 </r>
       <r>   -19.2765    65.4681   163.2690 </r>
       <r>   -19.0865    12.7070   165.6831 </r>
       <r>   -18.8965    22.0538   169.8729 </r>
       <r>   -18.7066     0.6690   170.0000 </r>
       <r>   -18.5166     0.0001   170.0000 </r>
       <r>   -18.3266     0.0000   170.0000 </r>
       <r>   -18.1366     0.0000   170.0000 </r>
       <r>   -17.9467     0.0000   170.0000 </r>
       <r>   -17.7567     0.0000   170.0000 </r>
       <r>   -17.5667     0.0000   170.0000 </r>
       <r>   -17.3767     0.0000   170.0000 </r>
       <r>   -17.1867     0.0000   170.0000 </r>
       <r>   -16.9968     0.0000   170.0000 </r>
       <r>   -16.8068     0.0000   170.0000 </r>
       <r>   -16.6168     0.0000   170.0000 </r>
       <r>   -16.4268     0.0000   170.0000 </r>
       <r>   -16.2368     0.0000   170.0000 </r>
       <r>   -16.0469     0.0000   170.0000 </r>
       <r>   -15.8569     0.0000   170.0000 </r>
       <r>   -15.6669     0.0000   170.0000 </r>
       <r>   -15.4769     0.0000   170.0000 </r>
       <r>   -15.2869     0.0000   170.0000 </r>
       <r>   -15.0970     0.0000   170.0000 </r>
       <r>   -14.9070     0.0000   170.0000 </r>
       <r>   -14.7170     0.0000   170.0000 </r>
       <r>   -14.5270     0.0000   170.0000 </r>
       <r>   -14.3370     0.0000   170.0000 </r>
       <r>   -14.1471     0.0000   170.0000 </r>
       <r>   -13.9571     0.0000   170.0000 </r>
       <r>   -13.7671     0.0000   170.0000 </r>
       <r>   -13.5771     0.0000   170.0000 </r>
       <r>   -13.3871     0.0000   170.0000 </r>
       <r>   -13.1972     0.0000   170.0000 </r>
       <r>   -13.0072     0.0000   170.0000 </r>
       <r>   -12.8172     0.0000   170.0000 </r>
       <r>   -12.6272     0.0000   170.0000 </r>
       <r>   -12.4372     0.0000   170.0000 </r>
       <r>   -12.2473     0.0000   170.0000 </r>
       <r>   -12.0573     0.0000   170.0000 </r>
       <r>   -11.8673     0.0000   170.0000 </r>
       <r>   -11.6773     0.0000   170.0000 </r>
       <r>   -11.4873     0.0000   170.0000 </r>
       <r>   -11.2974     0.0000   170.0000 </r>
       <r>   -11.1074     0.0000   170.0000 </r>
       <r>   -10.9174     0.0000   170.0000 </r>
       <r>   -10.7274     0.0000   170.0000 </r>
       <r>   -10.5374     0.0000   170.0000 </r>
       <r>   -10.3475     0.0000   170.0000 </r>
       <r>   -10.1575     0.0000   170.0000 </r>
       <r>    -9.9675     0.0000   170.0000 </r>
       <r>    -9.7775     0.0000   170.0000 </r>
       <r>    -9.5875     0.0000   170.0000 </r>
       <r>    -9.3976     0.0000   170.0000 </r>
       <r>    -9.2076     0.0000   170.0000 </r>
       <r>    -9.0176     0.0000   170.0000 </r>
       <r>    -8.8276     0.0197   170.0037 </r>
       <r>    -8.6376     1.8451   170.3543 </r>
       <r>    -8.4477     8.4609   171.9617 </r>
       <r>    -8.2577     9.8194   173.8272 </r>
       <r>    -8.0677     7.7479   175.2991 </r>
       <r>    -7.8777    12.5274   177.6791 </r>
       <r>    -7.6877     9.2517   179.4367 </r>
       <r>    -7.4978    11.4753   181.6168 </r>
       <r>    -7.3078     7.8055   183.0997 </r>
       <r>    -7.1178    19.0778   186.7241 </r>
       <r>    -6.9278    15.0672   189.5865 </r>
       <r>    -6.7379    18.8792   193.1732 </r>
       <r>    -6.5479    13.6435   195.7652 </r>
       <r>    -6.3579     1.2356   195.9999 </r>
       <r>    -6.1679     0.0005   196.0000 </r>
       <r>    -5.9779     0.0000   196.0000 </r>
       <r>    -5.7880     0.0000   196.0000 </r>
       <r>    -5.5980     0.0001   196.0000 </r>
       <r>    -5.4080     0.1809   196.0344 </r>
       <r>    -5.2180     5.3633   197.0533 </r>
       <r>    -5.0280     4.9605   197.9957 </r>
       <r>    -4.8381     5.5146   199.0434 </r>
       <r>    -4.6481    11.9979   201.3227 </r>
       <r>    -4.4581    12.7780   203.7503 </r>
       <r>    -4.2681    14.9269   206.5861 </r>
       <r>    -4.0781    21.0272   210.5808 </r>
       <r>    -3.8882    19.4235   214.2709 </r>
       <r>    -3.6982    20.7217   218.2076 </r>
       <r>    -3.5082    17.3339   221.5007 </r>
       <r>    -3.3182    18.0356   224.9271 </r>
       <r>    -3.1282    14.0229   227.5911 </r>
       <r>    -2.9383    10.4249   229.5717 </r>
       <r>    -2.7483    13.3588   232.1096 </r>
       <r>    -2.5583     7.9097   233.6122 </r>
       <r>    -2.3683     1.9770   233.9878 </r>
       <r>    -2.1783     0.0640   234.0000 </r>
       <r>    -1.9884     0.0000   234.0000 </r>
       <r>    -1.7984     0.0000   234.0000 </r>
       <r>    -1.6084     0.0000   234.0000 </r>
       <r>    -1.4184     0.0000   234.0000 </r>
       <r>    -1.2284     0.0000   234.0000 </r>
       <r>    -1.0385     0.0000   234.0000 </r>
       <r>    -0.8485     0.0001   234.0000 </r>
       <r>    -0.6585     0.0687   234.0131 </r>
       <r>    -0.4685     0.3605   234.0816 </r>
       <r>    -0.2785     2.1717   234.4941 </r>
       <r>    -0.0886     4.7740   235.4011 </r>
       <r>     0.1014    10.3952   237.3760 </r>
       <r>     0.2914    12.1958   239.6929 </r>
       <r>     0.4814    16.1330   242.7579 </r>
       <r>     0.6714    19.5118   246.4647 </r>
       <r>     0.8613    23.2927   250.8898 </r>
       <r>     1.0513    23.7326   255.3985 </r>
       <r>     1.2413    25.8209   260.3040 </r>
       <r>     1.4313    27.7416   265.5743 </r>
       <r>     1.6213    29.5838   271.1946 </r>
       <r>     1.8112    34.6991   277.7868 </r>
       <r>     2.0012    39.4685   285.2850 </r>
       <r>     2.1912    43.3870   293.5276 </r>
       <r>     2.3812    46.1505   302.2953 </r>
       <r>     2.5712    53.5299   312.4649 </r>
       <r>     2.7611    57.7540   323.4369 </r>
       <r>     2.9511    63.1926   335.4422 </r>
       <r>     3.1411    63.2356   347.4557 </r>
       <r>     3.3311    61.4804   359.1358 </r>
       <r>     3.5210    54.1797   369.4288 </r>
       <r>     3.7110    47.5705   378.4662 </r>
       <r>     3.9010    44.6696   386.9525 </r>
       <r>     4.0910    38.4262   394.2528 </r>
       <r>     4.2810    34.8937   400.8818 </r>
       <r>     4.4709    31.3912   406.8455 </r>
       <r>     4.6609    26.5051   411.8810 </r>
       <r>     4.8509    25.3947   416.7054 </r>
       <r>     5.0409    21.7591   420.8392 </r>
       <r>     5.2309    16.4547   423.9653 </r>
       <r>     5.4208    14.7013   426.7582 </r>
       <r>     5.6108    12.6056   429.1530 </r>
       <r>     5.8008    17.0011   432.3829 </r>
       <r>     5.9908    18.9027   435.9740 </r>
       <r>     6.1808    18.3141   439.4533 </r>
       <r>     6.3707    21.8998   443.6139 </r>
       <r>     6.5607    24.6312   448.2933 </r>
       <r>     6.7507    24.3967   452.9282 </r>
       <r>     6.9407    25.0103   457.6796 </r>
       <r>     7.1307    27.2918   462.8645 </r>
       <r>     7.3206    27.5453   468.0975 </r>
       <r>     7.5106    25.9380   473.0252 </r>
       <r>     7.7006    22.4150   477.2836 </r>
       <r>     7.8906    30.0045   482.9839 </r>
       <r>     8.0806    35.2249   489.6759 </r>
       <r>     8.2705    40.2712   497.3266 </r>
       <r>     8.4605    42.9413   505.4846 </r>
       <r>     8.6505    45.7764   514.1812 </r>
       <r>     8.8405    49.4806   523.5815 </r>
       <r>     9.0305    48.2544   532.7488 </r>
       <r>     9.2204    40.9577   540.5299 </r>
       <r>     9.4104    38.7778   547.8969 </r>
       <r>     9.6004    35.7817   554.6947 </r>
       <r>     9.7904    33.8224   561.1203 </r>
       <r>     9.9804    35.4344   567.8521 </r>
       <r>    10.1703    34.0457   574.3201 </r>
       <r>    10.3603     8.7492   575.9823 </r>
       <r>    10.5503     0.0933   576.0000 </r>
       <r>    10.7403     0.0000   576.0000 </r>
       <r>    10.9303     0.0000   576.0000 </r>
       <r>    11.1202     0.0000   576.0000 </r>
       <r>    11.3102     0.0000   576.0000 </r>
       <r>    11.5002     0.0000   576.0000 </r>
       <r>    11.6902     0.0000   576.0000 </r>
       <r>    11.8802     0.0000   576.0000 </r>
       <r>    12.0701     0.0000   576.0000 </r>
       <r>    12.2601     0.0000   576.0000 </r>
       <r>    12.4501     0.0000   576.0000 </r>
       <r>    12.6401     0.0000   576.0000 </r>
       <r>    12.8301     0.0000   576.0000 </r>
      </set>
     </set>
    </array>
   </total>
  </dos>
 </calculation>
 <structure name="finalpos" >
  <crystal>
   <varray name="basis" >
    <v>       8.88356330       0.00832997      -0.00740279 </v>
    <v>       0.01408566       8.94735883      -0.01500771 </v>
    <v>       0.02452516      -0.03041622       8.93053247 </v>
   </varray>
   <i name="volume">    709.83479080 </i>
   <varray name="rec_basis" >
    <v>       0.11256735      -0.00017773      -0.00030974 </v>
    <v>      -0.00010448       0.11176563       0.00038095 </v>
    <v>       0.00009313       0.00018767       0.11197579 </v>
   </varray>
  </crystal>
  <varray name="positions" >
   <v>       0.99632949       0.99525365       0.99243051 </v>
   <v>       0.26114124       0.99582605       0.25389825 </v>
   <v>       0.23663439       0.50165466       0.24254375 </v>
   <v>       0.50401770       0.50410495       0.99752962 </v>
   <v>       0.51010336       0.24636598       0.74198816 </v>
   <v>       0.99585046       0.50381029       0.49924188 </v>
   <v>       0.49988852       0.75616548       0.74402170 </v>
   <v>       0.99303525       0.22740521       0.26859064 </v>
   <v>       0.76441535       0.74235713       0.00065193 </v>
   <v>       0.01316838       0.24568078       0.73116239 </v>
   <v>       0.75262638       0.26262535       0.49058959 </v>
   <v>       0.99995543       0.73700795       0.75846919 </v>
   <v>       0.25383361       0.49445782       0.75121678 </v>
   <v>       0.24682334       0.24429870       0.99213681 </v>
   <v>       0.50434050       0.25315011       0.24896009 </v>
   <v>       0.73794791       0.99082995       0.26810999 </v>
   <v>       0.75581538       0.25364712       0.99105897 </v>
   <v>       0.25512068       0.75677357       0.99900387 </v>
   <v>       0.25646623       0.25182338       0.50206990 </v>
   <v>       0.24659269       0.75084908       0.50218078 </v>
   <v>       0.24416474       0.24824364       0.24880801 </v>
   <v>       0.24689467       0.00083391       0.00468335 </v>
   <v>       0.00053648       0.24052672       0.00936354 </v>
   <v>       0.75603347       0.24775402       0.25027749 </v>
   <v>       0.74596336       0.99117811      -0.00119686 </v>
   <v>       0.49785024       0.99838459       0.26766657 </v>
   <v>       0.99249180       0.47985821       0.25230457 </v>
   <v>       0.51136915       0.76017626      -0.00757993 </v>
   <v>       0.98076865       0.00309708       0.74659210 </v>
   <v>       0.75974048       0.25872800       0.74209728 </v>
   <v>       0.75478241       0.02402210       0.50828256 </v>
   <v>       0.51121364       0.25036255       0.49915901 </v>
   <v>       0.53230000       0.00002217       0.74027336 </v>
   <v>      -0.00069008      -0.00096097       0.25370826 </v>
   <v>       0.50464601       0.24167460      -0.00575204 </v>
   <v>       0.25622972       0.74984487       0.25077359 </v>
   <v>       0.24151653       0.50151289       0.99150218 </v>
   <v>       0.00087304       0.74358855       0.00542170 </v>
   <v>       0.74140145       0.73807634       0.24394515 </v>
   <v>       0.76328168       0.50528698       0.01032549 </v>
   <v>       0.49083638       0.50766803       0.24687867 </v>
   <v>       0.25398736       0.24621624       0.74729082 </v>
   <v>       0.25571186       0.00054479       0.51484672 </v>
   <v>       0.99669612       0.25050311       0.50247695 </v>
   <v>       0.24228681       0.75460473       0.75066796 </v>
   <v>       0.25123168       0.50126573       0.50049787 </v>
   <v>       0.98795395       0.75789569       0.50682238 </v>
   <v>       0.00081971       0.49270549       0.75706713 </v>
   <v>       0.75381202       0.75581205       0.74494556 </v>
   <v>       0.74587410       0.49752191       0.50976171 </v>
   <v>       0.50513117       0.76374526       0.49004044 </v>
   <v>       0.49960982       0.50236114       0.74364090 </v>
   <v>       0.52571437       0.00935019       0.95831251 </v>
   <v>       0.98866361       0.52535766       0.97473402 </v>
   <v>       0.50602193       0.72808089       0.27514659 </v>
   <v>       0.21191564       0.01457103       0.73125513 </v>
   <v>       0.47525987       0.99074682       0.52296046 </v>
   <v>       0.74417722       0.96273431       0.77659953 </v>
   <v>      -0.00475805       0.77265943       0.25151725 </v>
   <v>       0.72828616       0.50653189       0.25990354 </v>
   <v>       0.01313619       0.00325008       0.50551619 </v>
   <v>       0.50337612       0.51182357       0.48729163 </v>
   <v>       0.75426418       0.52205927       0.76536461 </v>
   <v>       0.74451842       0.72569261       0.48995138 </v>
  </varray>
 </structure>
</modeling>
