HECN                                    
           1
     8.932500    0.000000    0.000000
     0.005753    9.055598    0.000000
     0.032102   -0.015743    8.937128
   Hf   W    Zr   N    C    Cr   Mo
   7   6   7  13  19   6   6
Direct configuration=     1
   0.99688001  0.99204997  0.99924002
   0.25398003  0.99714995  0.24912000
   0.24803003  0.50165000  0.24955001
   0.50501006  0.49745998  0.99834003
   0.50479003  0.24631001  0.74710002
   0.99427992  0.50449999  0.49779000
   0.49950005  0.75481999  0.74817004
   0.99437004  0.23617001  0.26379999
   0.75718000  0.74102998  0.01100000
   0.00201000  0.25541000  0.73894001
   0.75307001  0.26163001  0.50533002
   0.99514004  0.74492004  0.74511997
   0.25679999  0.49462002  0.74545002
   0.24788999  0.24839000  0.99657997
   0.50833000  0.25676999  0.25376001
   0.74879004  0.98787999  0.26967001
   0.75719000  0.25603001  0.99591997
   0.24762001  0.74973999  0.99974006
   0.25272001  0.24823001  0.50015003
   0.24457999  0.75048999  0.49983999
   0.24982001  0.24942998  0.24825000
   0.26146999  0.99984002  0.99295996
   0.00281000  0.25024000  0.00130000
   0.75313998  0.24617000  0.25492002
   0.74767001  0.99748000  0.01202000
   0.50714994  0.99977000  0.24673000
   0.99051999  0.48088002  0.24100998
   0.50519005  0.76130999  0.00855000
   0.98896989  0.00202000  0.73708999
   0.75744996  0.24437997  0.74896999
   0.73632001  0.00417000  0.51063000
   0.50563996  0.23264999  0.49544997
   0.50008998  0.00061000  0.73471998
   0.99720000  0.99771992  0.25899999
   0.50427997  0.24673000  0.00262000
   0.25133999  0.74958002  0.24910999
   0.24328000  0.50072997  0.99510994
   0.99837005  0.74313996  0.00460000
   0.75633000  0.73891003  0.25767000
   0.75839004  0.50315998  0.00288000
   0.50700002  0.50333002  0.25878999
   0.24900999  0.25315000  0.74854000
   0.24446000  0.99823996  0.50287998
   0.99804009  0.24229999  0.50128003
   0.24177002  0.75340997  0.75018002
   0.25841001  0.50062002  0.50129001
   0.99000004  0.76215003  0.49746000
   0.99203996  0.50055999  0.75138002
   0.75036005  0.74888000  0.74756004
   0.74036002  0.50197000  0.50067003
   0.50575006  0.74958002  0.49720000
   0.50501003  0.50217998  0.73912003
   0.51588997  0.01358000  0.98075008
   0.99841994  0.50976998  0.98613004
   0.50379003  0.73926997  0.25905001
   0.23780002  0.01082000  0.74607998
   0.47957999  0.98308000  0.49717999
   0.74279003  0.97869994  0.76450995
   0.99864998  0.77573999  0.26102000
   0.73551001  0.51468004  0.26666001
   0.02362000  0.99783001  0.49557002
   0.50539000  0.52833005  0.49917999
   0.73876003  0.52828003  0.73814999
   0.75400003  0.72937999  0.49116997
HECN                                    
           1
     8.751930   -0.006765   -0.007848
    -0.001221    8.838455   -0.002894
     0.023612   -0.018241    8.769792
   Hf   W    Zr   N    C    Cr   Mo
   7   6   7  13  19   6   6
Direct configuration=     2
   0.99523803  0.99428777  0.99308358
   0.26072689  0.99724786  0.24568385
   0.24699692  0.50214960  0.24603615
   0.50281259  0.50019707  0.99895980
   0.50527866  0.23940262  0.74526662
   0.99500677  0.50009129  0.49853294
   0.49781515  0.76410627  0.75186875
   0.99345515  0.23110611  0.26646006
   0.75960481  0.73846632  0.01064128
   0.00798746  0.25872149  0.73514425
   0.75519053  0.26153472  0.50498048
   0.99656392  0.74185569  0.74871314
   0.25555279  0.49573498  0.74985325
   0.24789308  0.24784481  0.99498011
   0.50825485  0.25010652  0.25309583
   0.74032844  0.99198394  0.26948304
   0.75670696  0.25461178  0.99485687
   0.24987530  0.75066822  0.99856267
   0.25473190  0.24839670  0.50251105
   0.24813985  0.75147161  0.50116006
   0.24853934  0.24939762  0.24939002
   0.25783387  0.00030672  0.99506887
   0.00208623  0.24821890  0.00162156
   0.75680233  0.24716076  0.25693791
   0.74752189  0.99488755  0.00528772
   0.50097804  0.99758161  0.24807783
   0.99326660  0.47879273  0.24407920
   0.50885641  0.75934104  0.00548550
   0.98803849  0.00252311  0.74305102
   0.75620593  0.24249170  0.74492724
   0.73717386  0.00639612  0.51303683
   0.50827732  0.23193723  0.50156469
   0.50319090  0.00045483  0.73829265
   0.00165445  0.00381504  0.25302443
   0.50465761  0.24687304 -0.00258481
   0.25317025  0.74897139  0.24962601
   0.24422169  0.50014764  0.99462529
   0.99328123  0.74123927  0.00217654
   0.75149008  0.73979463  0.24973708
   0.76027731  0.50809524  0.00295109
   0.49957063  0.50865229  0.25406909
   0.24766418  0.25102608  0.74799845
   0.25504042  0.99800632  0.50616094
   0.99429154  0.24530350  0.50299993
   0.24110132  0.75263651  0.74980670
   0.25367852  0.50028760  0.50148176
   0.99145694  0.75779499  0.50362151
   0.99435082  0.49898266  0.75412550
   0.75042668  0.75828721  0.75089776
   0.74586186  0.49475952  0.50304152
   0.50413577  0.75762422  0.49377608
   0.49889534  0.50067442  0.74430048
   0.51823190  0.01473808  0.97952315
   0.99674638  0.51627753  0.98178133
   0.50492685  0.73584593  0.25989579
   0.23623509  0.01124570  0.74580493
   0.47642454  0.98311572  0.49917404
   0.73982357  0.97313888  0.76642792
   0.00151029  0.77472630  0.25729954
   0.73635274  0.51358653  0.25992569
   0.01848518  0.00054795  0.49830079
   0.50431030  0.52521880  0.49635304
   0.74041425  0.52375732  0.74375185
   0.75438138  0.73535417  0.49323185
HECN                                    
           1
     8.808233   -0.004655   -0.005401
     0.000953    8.906161   -0.001992
     0.026259   -0.017462    8.821968
   Hf   W    Zr   N    C    Cr   Mo
   7   6   7  13  19   6   6
Direct configuration=     3
   0.99576178  0.99357389  0.99504005
   0.25858074  0.99721528  0.24677377
   0.24732658  0.50199060  0.24715294
   0.50351105  0.49932313  0.99876320
   0.50512541  0.24160937  0.74584978
   0.99477634  0.50149947  0.49829713
   0.49834797  0.76113965  0.75069296
   0.99374680  0.23272381  0.26561560
   0.75883388  0.73928476  0.01075485
   0.00608547  0.25766250  0.73634832
   0.75451582  0.26156468  0.50509096
   0.99611052  0.74283394  0.74757131
   0.25594816  0.49537865  0.74845434
   0.24789269  0.24801914  0.99548853
   0.50828062  0.25223536  0.25330760
   0.74302027  0.99067495  0.26954443
   0.75686134  0.25506508  0.99519497
   0.24915769  0.75037125  0.99893605
   0.25409092  0.24834272  0.50176024
   0.24700635  0.75115701  0.50073948
   0.24894658  0.24940816  0.24902814
   0.25899030  0.00015830  0.99439974
   0.00231697  0.24886472  0.00151980
   0.75563601  0.24684315  0.25629557
   0.74757161  0.99571646  0.00742725
   0.50294233  0.99828210  0.24765154
   0.99239216  0.47945857  0.24310338
   0.50769101  0.75996947  0.00645843
   0.98833306  0.00236201  0.74115709
   0.75660346  0.24309565  0.74621240
   0.73690089  0.00568450  0.51227157
   0.50743644  0.23216367  0.49962103
   0.50220309  0.00050329  0.73715655
   0.00023706  0.00186737  0.25492128
   0.50453888  0.24682777 -0.00093108
   0.25258779  0.74916533  0.24946158
   0.24392230  0.50033349  0.99477908
   0.99490185  0.74184796  0.00294826
   0.75303238  0.73951401  0.25225909
   0.75967546  0.50651812  0.00292744
   0.50193497  0.50695429  0.25557074
   0.24809315  0.25170498  0.74817114
   0.25167245  0.99807805  0.50511540
   0.99548323  0.24434472  0.50245417
   0.24131443  0.75288381  0.74992559
   0.25518429  0.50039493  0.50142221
   0.99099262  0.75918530  0.50166370
   0.99361503  0.49948573  0.75325262
   0.75040218  0.75528157  0.74983617
   0.74411208  0.49706145  0.50228716
   0.50464847  0.75505510  0.49486366
   0.50084016  0.50115637  0.74265627
   0.51748667  0.01436766  0.97991222
   0.99727859  0.51419943  0.98316294
   0.50456568  0.73693943  0.25962708
   0.23673308  0.01111011  0.74589273
   0.47742815  0.98310488  0.49854132
   0.74076844  0.97491598  0.76581991
   0.00060135  0.77504982  0.25848103
   0.73608675  0.51393634  0.26206543
   0.02011781 -0.00031936  0.49743425
   0.50465549  0.52621329  0.49725195
   0.73988734  0.52520120  0.74197183
   0.75425794  0.73344532  0.49257593
HECN                                    
           1
     8.905196   -0.004212   -0.009068
     0.001443    8.969427   -0.007009
     0.022928   -0.022534    8.912961
   Hf   W    Zr   N    C    Cr   Mo
   7   6   7  13  19   6   6
Direct configuration=     4
   0.99472261  0.99586848  0.98790665
   0.26360279  0.99727642  0.24440932
   0.24455060  0.50146527  0.24453373
   0.50175084  0.50145788  0.99931911
   0.50508617  0.23562898  0.74487783
   0.99713271  0.49856756  0.49824308
   0.49729565  0.76760452  0.75328781
   0.99391654  0.22950170  0.26749296
   0.76013201  0.73852179  0.00968498
   0.01216728  0.26000466  0.73471629
   0.75486134  0.26010992  0.50392627
   0.99778239  0.73882674  0.75250274
   0.25436853  0.49674099  0.75264929
   0.24805510  0.24699659  0.99440459
   0.50740729  0.24850539  0.25228281
   0.73813260  0.99337753  0.26817971
   0.75579366  0.25430741  0.99367839
   0.25040221  0.75242654  0.99825447
   0.25589539  0.24866191  0.50284167
   0.24920836  0.75174994  0.50134720
   0.24748224  0.24899306  0.25000104
   0.25541787  0.00043134  0.99614567
   0.00150552  0.24678756  0.00238315
   0.75854493  0.24814135  0.25735868
   0.74630041  0.99337122 -0.00028611
   0.49702632  0.99547642  0.24826727
   0.99505607  0.47837842  0.24603041
   0.51083366  0.75876785  0.00310715
   0.98758705  0.00279187  0.74708600
   0.75593873  0.24154062  0.74225071
   0.73935310  0.00708226  0.51562076
   0.51041283  0.23252914  0.50438809
   0.50618515  0.00040884  0.74220303
   0.00311763  0.00467732  0.24924110
   0.50472590  0.24666118 -0.00507397
   0.25515097  0.74885280  0.24953183
   0.24410129  0.50020053  0.99417688
   0.99333301  0.74059085  0.00116922
   0.74754781  0.74169677  0.24593919
   0.76193578  0.50871370  0.00299746
   0.49529446  0.51102146  0.25090198
   0.24780143  0.24870669  0.74807865
   0.26034792  0.99841187  0.50909447
   0.99419377  0.24731680  0.50362947
   0.24102271  0.75275981  0.75026563
   0.25133722  0.50035983  0.50132685
   0.99318562  0.75519265  0.50667815
   0.99615863  0.49720395  0.75632516
   0.75009052  0.76320269  0.75215830
   0.74792603  0.49226754  0.50358809
   0.50396228  0.76304042  0.49150296
   0.49530341  0.50069417  0.74665193
   0.52019566  0.01452628  0.97809500
   0.99529916  0.52158681  0.97873823
   0.50441704  0.73310561  0.26100877
   0.23349580  0.01065344  0.74512536
   0.47556351  0.98438504  0.50099213
   0.73664315  0.97082393  0.76893692
   0.00295532  0.77439181  0.25405293
   0.73610166  0.51127953  0.25467117
   0.01712775  0.00262652  0.50154706
   0.50380296  0.52266351  0.49403047
   0.74107154  0.52175810  0.75067666
   0.75288256  0.73832800  0.49484733
HECN                                    
           1
     8.878789   -0.004333   -0.008069
     0.001310    8.952197   -0.005642
     0.023835   -0.021153    8.888180
   Hf   W    Zr   N    C    Cr   Mo
   7   6   7  13  19   6   6
Direct configuration=     5
   0.99500335  0.99524900  0.98982932
   0.26225022  0.99726031  0.24504614
   0.24529866  0.50160767  0.24524016
   0.50222497  0.50088049  0.99916912
   0.50509675  0.23724636  0.74514075
   0.99649792  0.49936046  0.49825784
   0.49757894  0.76585588  0.75258747
   0.99387056  0.23037276  0.26698736
   0.75978243  0.73872829  0.00997335
   0.01052919  0.25937161  0.73515520
   0.75476837  0.26050349  0.50424041
   0.99733142  0.73990968  0.75117383
   0.25479361  0.49637194  0.75151845
   0.24801145  0.24727328  0.99469692
   0.50764260  0.24951420  0.25255972
   0.73944942  0.99264682  0.26854771
   0.75608142  0.25451251  0.99408744
   0.25006707  0.75187086  0.99843775
   0.25540920  0.24857546  0.50254991
   0.24861513  0.75158954  0.50118305
   0.24787659  0.24910515  0.24973900
   0.25638002  0.00035719  0.99567538
   0.00172399  0.24734914  0.00215083
   0.75776123  0.24779018  0.25707159
   0.74664365  0.99400654  0.00179362
   0.49861985  0.99623496  0.24810236
   0.99433814  0.47867013  0.24524126
   0.50998745  0.75909333  0.00401037
   0.98778737  0.00267474  0.74548780
   0.75611820  0.24196171  0.74331895
   0.73869218  0.00670382  0.51471746
   0.50961054  0.23242965  0.50310269
   0.50511192  0.00043370  0.74084226
   0.00234233  0.00391832  0.25077153
   0.50467597  0.24670684 -0.00395719
   0.25446049  0.74893734  0.24951266
   0.24405313  0.50023657  0.99433921
   0.99375579  0.74093104  0.00164914
   0.74902595  0.74110735  0.24764307
   0.76132693  0.50811999  0.00297801
   0.49708383  0.50992219  0.25216061
   0.24787998  0.24951751  0.74810407
   0.25801051  0.99832114  0.50802086
   0.99454104  0.24651289  0.50331234
   0.24110125  0.75279329  0.75017402
   0.25237354  0.50036928  0.50135298
   0.99259427  0.75627165  0.50532681
   0.99547307  0.49782058  0.75549698
   0.75017434  0.76106029  0.75153117
   0.74689842  0.49356379  0.50323772
   0.50414761  0.76088150  0.49240774
   0.49679444  0.50081849  0.74557552
   0.51946612  0.01448369  0.97858454
   0.99583297  0.51958971  0.97993007
   0.50445687  0.73414215  0.26063692
   0.23436793  0.01077700  0.74533264
   0.47606555  0.98403847  0.50033149
   0.73775401  0.97192999  0.76809776
   0.00232169  0.77457043  0.25524643
   0.73609841  0.51199908  0.25666479
   0.01793280  0.00182924  0.50043828
   0.50403291  0.52362391  0.49489949
   0.74075154  0.52268793  0.74833055
   0.75325288  0.73700725  0.49423446
HECN                                    
           1
     8.882379    0.002548   -0.008474
     0.008251    8.963102   -0.008132
     0.023413   -0.023638    8.878044
   Hf   W    Zr   N    C    Cr   Mo
   7   6   7  13  19   6   6
Direct configuration=     6
   0.99471938  0.99567675  0.98711659
   0.26120462  0.99663861  0.24582213
   0.24253989  0.50100280  0.24515047
   0.50261042  0.50081309  0.99899039
   0.50461368  0.23684764  0.74549400
   0.99751936  0.50069717  0.49786532
   0.49770328  0.76412886  0.75161880
   0.99408007  0.23019937  0.26817038
   0.76046923  0.73933506  0.00921874
   0.01280496  0.25900267  0.73546711
   0.75400818  0.25937606  0.50286872
   0.99777707  0.73651590  0.75307858
   0.25515358  0.49656322  0.75225082
   0.24770723  0.24647500  0.99449881
   0.50741953  0.25159018  0.25218432
   0.74029256  0.99192991  0.26790640
   0.75548397  0.25503651  0.99278090
   0.24942901  0.75329208  0.99879291
   0.25562909  0.24904950  0.50230823
   0.24783043  0.75128012  0.50081397
   0.24741330  0.24836337  0.24983790
   0.25409595  0.00048462  0.99653926
   0.00121869  0.24553508  0.00295413
   0.75802225  0.24824620  0.25649774
   0.74573256  0.99366362 -0.00176838
   0.49871043  0.99550302  0.24805369
   0.99540128  0.47847059  0.24730805
   0.51047839  0.75895664  0.00184489
   0.98854819  0.00274478  0.74646296
   0.75646500  0.24248236  0.74195885
   0.74182415  0.00680355  0.51500574
   0.51096641  0.23439957  0.50277582
   0.50812097  0.00037274  0.74446409
   0.00199685  0.00123185  0.25013215
   0.50457569  0.24649406 -0.00401630
   0.25552810  0.74927447  0.24919103
   0.24335902  0.50084979  0.99387723
   0.99606461  0.74238363  0.00190930
   0.74662302  0.74159038  0.24759532
   0.76214516  0.50664789  0.00308067
   0.49653584  0.50970561  0.25114727
   0.24883455  0.24824169  0.74842058
   0.25856340  0.99906113  0.51014791
   0.99616272  0.24747565  0.50335433
   0.24116270  0.75302120  0.75084854
   0.25236153  0.50070776  0.50122176
   0.99309644  0.75563333  0.50590454
   0.99641571  0.49635898  0.75646051
   0.75050979  0.76058399  0.75105947
   0.74636339  0.49447759  0.50296577
   0.50513221  0.76212364  0.49108615
   0.49582389  0.50196075  0.74536331
   0.52194222  0.01371032  0.97681820
   0.99422270  0.52330022  0.97747429
   0.50343631  0.73154173  0.26299573
   0.23011981  0.00983989  0.74374530
   0.47668831  0.98580299  0.50208367
   0.73427488  0.97237319  0.77088418
   0.00204415  0.77660869  0.25357756
   0.73346937  0.51200368  0.25426053
   0.01937637  0.00243393  0.50336436
   0.50474962  0.52353181  0.49279755
   0.74062327  0.52383534  0.75369431
   0.75180564  0.73571791  0.49422262
HECN                                    
           1
     8.885122    0.007805   -0.008783
     0.013555    8.971433   -0.010033
     0.023091   -0.025537    8.870301
   Hf   W    Zr   N    C    Cr   Mo
   7   6   7  13  19   6   6
Direct configuration=     7
   0.99450218  0.99600273  0.98504182
   0.26040652  0.99616501  0.24641548
   0.24043343  0.50054285  0.24508166
   0.50290481  0.50076140  0.99885368
   0.50424502  0.23654376  0.74576409
   0.99829861  0.50171648  0.49756542
   0.49779923  0.76281076  0.75087755
   0.99424020  0.23006720  0.26907518
   0.76099333  0.73979749  0.00864173
   0.01454314  0.25871988  0.73570567
   0.75342828  0.25851593  0.50181930
   0.99811949  0.73392640  0.75453473
   0.25542838  0.49670912  0.75281103
   0.24747538  0.24586601  0.99434711
   0.50724792  0.25317432  0.25189762
   0.74093684  0.99138224  0.26741576
   0.75502735  0.25543643  0.99178167
   0.24894090  0.75437701  0.99906484
   0.25579673  0.24941105  0.50212348
   0.24723135  0.75104440  0.50053159
   0.24705995  0.24779764  0.24991337
   0.25235162  0.00058337  0.99719996
   0.00083392  0.24415132  0.00356814
   0.75822130  0.24859389  0.25605893
   0.74503687  0.99340172 -0.00449291
   0.49878003  0.99494445  0.24801630
   0.99621337  0.47831815  0.24888885
   0.51085332  0.75885158  0.00018860
   0.98912921  0.00279798  0.74720887
   0.75672948  0.24287916  0.74091870
   0.74421591  0.00687787  0.51522636
   0.51200066  0.23590185  0.50252627
   0.51041907  0.00032523  0.74723435
   0.00173460 -0.00081800  0.24964254
   0.50449924  0.24633175 -0.00406156
   0.25634320  0.74953103  0.24894513
   0.24282856  0.50131802  0.99352398
   0.99782694  0.74349075  0.00210866
   0.74478767  0.74196036  0.24755881
   0.76277091  0.50552414  0.00315890
   0.49611744  0.50954046  0.25037214
   0.24956430  0.24726767  0.74866243
   0.25898527  0.99962591  0.51177498
   0.99740059  0.24820936  0.50338671
   0.24120951  0.75319522  0.75136450
   0.25235215  0.50096601  0.50112146
   0.99348033  0.75514609  0.50634630
   0.99713649  0.49524335  0.75719719
   0.75076624  0.76022024  0.75069860
   0.74595424  0.49517512  0.50275795
   0.50588335  0.76307060  0.49007562
   0.49508201  0.50283288  0.74520120
   0.52383356  0.01311836  0.97546712
   0.99299068  0.52613197  0.97559670
   0.50265856  0.72955857  0.26479930
   0.22687613  0.00912698  0.74253087
   0.47716291  0.98714944  0.50342422
   0.73161778  0.97271401  0.77301537
   0.00183093  0.77816381  0.25230154
   0.73146156  0.51200821  0.25242153
   0.02047852  0.00289512  0.50560257
   0.50529694  0.52346065  0.49118987
   0.74052481  0.52471210  0.75779706
   0.75070118  0.73473491  0.49421325
HECN                                    
           1
     8.883278    0.008953   -0.008374
     0.014716    8.967933   -0.008105
     0.023500   -0.023606    8.881279
   Hf   W    Zr   N    C    Cr   Mo
   7   6   7  13  19   6   6
Direct configuration=     8
   0.99435272  0.99684714  0.98483977
   0.26079514  0.99680329  0.24871501
   0.23916910  0.50051506  0.24420622
   0.50253834  0.50162790  0.99836823
   0.50410665  0.23857962  0.74516032
   0.99613027  0.50264054  0.49779618
   0.49815509  0.76002947  0.74855285
   0.99435918  0.22694221  0.26890692
   0.76258652  0.74088983  0.00703498
   0.01506496  0.25635560  0.73546266
   0.75329141  0.25978273  0.50009726
   0.99810105  0.73243635  0.75474451
   0.25704010  0.49707070  0.75213644
   0.24687900  0.24533128  0.99509233
   0.50722180  0.25422124  0.25169991
   0.74061423  0.99155336  0.26772677
   0.75529662  0.25493847  0.99053690
   0.25059756  0.75497658  0.99929832
   0.25703030  0.25027379  0.50215474
   0.24791341  0.75158881  0.50085403
   0.24672536  0.24741348  0.24961695
   0.24958057  0.00079690  0.99814772
   0.00041592  0.24194527  0.00443654
   0.75769495  0.24862249  0.25425116
   0.74557372  0.99300856 -0.00494587
   0.49984730  0.99573262  0.24817888
   0.99623844  0.47752318  0.25117114
   0.51079957  0.75871806 -0.00161971
   0.99110720  0.00270919  0.74516590
   0.75698503  0.24386566  0.74067249
   0.74841446  0.00811691  0.51373571
   0.51298330  0.23900334  0.50143183
   0.51362234 -0.00055188  0.74927453
   0.00045461  0.00135370  0.25139647
   0.50413426  0.24570223 -0.00303100
   0.25657236  0.74925915  0.24929387
   0.24138231  0.50175257  0.99304507
   0.99864759  0.74625646  0.00316921
   0.74321027  0.74131075  0.24785483
   0.76369311  0.50500514  0.00448835
   0.49369077  0.50777871  0.24932790
   0.25170639  0.24666202  0.74873436
   0.25946010  0.99966799  0.51383893
   0.99855175  0.24955064  0.50427486
   0.24128653  0.75346543  0.75109924
   0.25317794  0.50106662  0.50086241
   0.99252510  0.75638163  0.50587544
   0.99694067  0.49353898  0.75678316
   0.75171727  0.75978663  0.74975878
   0.74601040  0.49573229  0.50299235
   0.50597140  0.76345109  0.48900891
   0.49592860  0.50387250  0.74396658
   0.52606607  0.01242770  0.97375382
   0.99056320  0.52762637  0.97506239
   0.50242173  0.72882828  0.26776839
   0.22059015  0.00804328  0.74008948
   0.47778262  0.98951447  0.50601556
   0.72795962  0.97293420  0.77497034
   0.00045693  0.77568728  0.25159997
   0.73034808  0.51278477  0.25178891
   0.02026813  0.00271245  0.50880220
   0.50576979  0.52163948  0.48966857
   0.74197145  0.52440687  0.76151615
   0.74950958  0.73149230  0.49332305
HECN                                    
           1
     8.882904    0.009185   -0.008292
     0.014950    8.967225   -0.007715
     0.023583   -0.023215    8.883500
   Hf   W    Zr   N    C    Cr   Mo
   7   6   7  13  19   6   6
Direct configuration=     9
   0.99432245  0.99701808  0.98479890
   0.26087376  0.99693238  0.24917968
   0.23891323  0.50050950  0.24402932
   0.50246416  0.50180332  0.99827010
   0.50407859  0.23899173  0.74503822
   0.99569142  0.50282762  0.49784280
   0.49822720  0.75946659  0.74808317
   0.99438334  0.22630967  0.26887305
   0.76290893  0.74111096  0.00671022
   0.01517062  0.25587703  0.73541365
   0.75326369  0.26003923  0.49974920
   0.99809736  0.73213474  0.75478696
   0.25736627  0.49714388  0.75200008
   0.24675831  0.24522303  0.99524295
   0.50721649  0.25443316  0.25165991
   0.74054893  0.99158799  0.26778962
   0.75535114  0.25483772  0.99028537
   0.25093282  0.75509789  0.99934546
   0.25727993  0.25044839  0.50216101
   0.24805143  0.75169897  0.50091916
   0.24665766  0.24733574  0.24955707
   0.24901975  0.00084016  0.99833926
   0.00033138  0.24149870  0.00461214
   0.75758844  0.24862838  0.25388583
   0.74568239  0.99292898 -0.00503740
   0.50006327  0.99589213  0.24821169
   0.99624352  0.47736216  0.25163239
   0.51078871  0.75869111 -0.00198514
   0.99150753  0.00269126  0.74475303
   0.75703673  0.24406535  0.74062269
   0.74926413  0.00836766  0.51343437
   0.51318209  0.23963116  0.50121051
   0.51427062 -0.00072959  0.74968682
   0.00019549  0.00179324  0.25175083
   0.50406041  0.24557477 -0.00282271
   0.25661875  0.74920410  0.24936435
   0.24108961  0.50184059  0.99294829
   0.99881359  0.74681622  0.00338341
   0.74289106  0.74117929  0.24791469
   0.76387974  0.50490001  0.00475703
   0.49319972  0.50742221  0.24911697
   0.25213992  0.24653937  0.74874891
   0.25955618  0.99967640  0.51425603
   0.99878468  0.24982207  0.50445428
   0.24130211  0.75352013  0.75104563
   0.25334506  0.50108698  0.50081005
   0.99233175  0.75663177  0.50578025
   0.99690109  0.49319402  0.75669957
   0.75190975  0.75969888  0.74956887
   0.74602175  0.49584506  0.50303969
   0.50598922  0.76352815  0.48879332
   0.49609991  0.50408297  0.74371703
   0.52651791  0.01228792  0.97340759
   0.99007189  0.52792894  0.97495437
   0.50237380  0.72868033  0.26836844
   0.21931806  0.00782419  0.73959622
   0.47790796  0.98999306  0.50653912
   0.72721926  0.97297878  0.77536544
   0.00017893  0.77518606  0.25145831
   0.73012272  0.51294201  0.25166104
   0.02022553  0.00267534  0.50944881
   0.50586554  0.52127091  0.48936121
   0.74226420  0.52434488  0.76226772
   0.74926852  0.73083601  0.49314331
HECN                                    
           1
     8.904144    0.004262   -0.007600
     0.010023    8.961445   -0.006536
     0.024357   -0.022033    8.898959
   Hf   W    Zr   N    C    Cr   Mo
   7   6   7  13  19   6   6
Direct configuration=    10
   0.99519587  0.99687034  0.98613630
   0.26183811  0.99661914  0.25101691
   0.23824512  0.50117748  0.24377600
   0.50233966  0.50295495  0.99826151
   0.50504921  0.24104759  0.74475647
   0.99499581  0.50276234  0.49791884
   0.49908202  0.75848988  0.74620907
   0.99371005  0.22716220  0.26979097
   0.76344174  0.74206579  0.00499655
   0.01513320  0.25287313  0.73460038
   0.75409982  0.26223052  0.49859456
   0.99773647  0.73322181  0.75447680
   0.25828025  0.49747619  0.75080479
   0.24652541  0.24531994  0.99465810
   0.50726239  0.25337996  0.25103069
   0.73977834  0.99144062  0.26920184
   0.75520066  0.25405571  0.98986586
   0.25278099  0.75583542  0.99916884
   0.25796108  0.25085787  0.50263971
   0.24840158  0.75155088  0.50109537
   0.24626976  0.24727271  0.24952375
   0.24725237  0.00098066  0.99963152
   0.00017176  0.24056018  0.00553292
   0.75758292  0.24780210  0.25274064
   0.74716429  0.99249404 -0.00268491
   0.50000560  0.99737023  0.24859155
   0.99513575  0.47764252  0.25226972
   0.51038177  0.75843296 -0.00298431
   0.99153422  0.00207390  0.74456401
   0.75716550  0.24491818  0.74080828
   0.75199869  0.01071283  0.51160065
   0.51337884  0.24244174  0.50097023
   0.51529126 -0.00053628  0.74818840
   0.00002436 -0.00031994  0.25308531
   0.50410423  0.24482854 -0.00285325
   0.25643689  0.74928128  0.24996031
   0.24014480  0.50167594  0.99219380
   0.99885277  0.74736331  0.00332167
   0.74256519  0.74105563  0.24672920
   0.76383034  0.50553533  0.00688977
   0.49203990  0.50719639  0.24842711
   0.25289891  0.24650805  0.74881964
   0.26005753  0.99996892  0.51538072
   0.99836673  0.25013419  0.50384879
   0.24142034  0.75367529  0.75045061
   0.25331533  0.50117581  0.50082683
   0.99120425  0.75756280  0.50564085
   0.99644243  0.49253528  0.75664189
   0.75262120  0.76059448  0.74878535
   0.74621457  0.49544146  0.50393394
   0.50571146  0.76366350  0.48857056
   0.49757514  0.50343271  0.74314160
   0.52635975  0.01214556  0.97278165
   0.98865471  0.52734901  0.97534372
   0.50282203  0.72859539  0.27016960
   0.21634481  0.00775834  0.73789788
   0.47844293  0.99144404  0.50938752
   0.72768226  0.97220168  0.77545980
  -0.00133594  0.77542577  0.25224139
   0.72988277  0.51215874  0.25271501
   0.01819949  0.00281312  0.50905001
   0.50514928  0.51788209  0.48815900
   0.74503619  0.52243418  0.76286397
   0.74854523  0.72892528  0.49238388
HECN                                    
           1
     8.913862    0.002010   -0.007284
     0.007769    8.958800   -0.005996
     0.024711   -0.021492    8.906033
   Hf   W    Zr   N    C    Cr   Mo
   7   6   7  13  19   6   6
Direct configuration=    11
   0.99559448  0.99680283  0.98674717
   0.26227817  0.99647584  0.25185610
   0.23794032  0.50148318  0.24366027
   0.50228312  0.50348222  0.99825752
   0.50549280  0.24198917  0.74462761
   0.99467826  0.50273227  0.49795361
   0.49947205  0.75804301  0.74535304
   0.99340289  0.22755232  0.27021023
   0.76368526  0.74250321  0.00421371
   0.01511538  0.25149779  0.73422908
   0.75448209  0.26323412  0.49806698
   0.99757201  0.73371948  0.75433507
   0.25869760  0.49762865  0.75025875
   0.24641915  0.24536429  0.99439096
   0.50728309  0.25289778  0.25074334
   0.73942649  0.99137286  0.26984695
   0.75513178  0.25369764  0.98967429
   0.25362483  0.75617359  0.99908806
   0.25827210  0.25104550  0.50285833
   0.24856137  0.75148315  0.50117585
   0.24609268  0.24724375  0.24950855
   0.24644557  0.00104447  0.00022185
   0.00009863  0.24013036  0.00595358
   0.75758023  0.24742385  0.25221759
   0.74784056  0.99229513 -0.00161037
   0.49997964  0.99804696  0.24876497
   0.99463012  0.47777057  0.25256086
   0.51019598  0.75831471 -0.00344069
   0.99154626  0.00179124  0.74447771
   0.75722450  0.24530869  0.74089300
   0.75324763  0.01178740  0.51076281
   0.51346937  0.24372868  0.50086030
   0.51575726 -0.00044741  0.74750390
  -0.00005434 -0.00128762  0.25369500
   0.50412405  0.24448688 -0.00286715
   0.25635387  0.74931654  0.25023253
   0.23971350  0.50160037  0.99184921
   0.99887080  0.74761383  0.00329343
   0.74241646  0.74099900  0.24618772
   0.76380787  0.50582608  0.00786392
   0.49151043  0.50709275  0.24811205
   0.25324536  0.24649390  0.74885192
   0.26028642  0.00010292  0.51589442
   0.99817604  0.25027704  0.50357221
   0.24147436  0.75374640  0.75017880
   0.25330178  0.50121647  0.50083449
   0.99068981  0.75798882  0.50557717
   0.99623290  0.49223356  0.75661560
   0.75294621  0.76100477  0.74842738
   0.74630246  0.49525665  0.50434243
   0.50558471  0.76372541  0.48846881
   0.49824841  0.50313539  0.74287874
   0.52628754  0.01208037  0.97249575
   0.98800763  0.52708310  0.97552165
   0.50302655  0.72855650  0.27099232
   0.21498762  0.00772754  0.73712223
   0.47868740  0.99210836  0.51068849
   0.72789341  0.97184599  0.77550293
  -0.00202742  0.77553509  0.25259912
   0.72977300  0.51179998  0.25319650
   0.01727469  0.00287571  0.50886791
   0.50482151  0.51633036  0.48761009
   0.74630104  0.52155999  0.76313633
   0.74821461  0.72805029  0.49203713
HECN                                    
           1
     8.886457    0.001971   -0.008206
     0.007712    8.933004   -0.005855
     0.023697   -0.021301    8.886684
   Hf   W    Zr   N    C    Cr   Mo
   7   6   7  13  19   6   6
Direct configuration=    12
   0.99660640  0.99634708  0.98850869
   0.26241288  0.99651813  0.25344421
   0.23717012  0.50151324  0.24340966