       N       E                     dE             d eps       ncg     rms          rms(c)
DAV:   1     0.731720442356E+04    0.73172E+04   -0.22859E+05  9432   0.151E+03
DAV:   2     0.342902448531E+03   -0.69743E+04   -0.67427E+04  9480   0.635E+02
DAV:   3    -0.658142151021E+03   -0.10010E+04   -0.91783E+03 14352   0.213E+02
DAV:   4    -0.775525655461E+03   -0.11738E+03   -0.11274E+03 15792   0.898E+01
DAV:   5    -0.791212014886E+03   -0.15686E+02   -0.15194E+02 18648   0.282E+01    0.776E+01
RMM:   6    -0.941921580432E+03   -0.15071E+03   -0.22849E+03 12101   0.123E+02    0.130E+02
RMM:   7    -0.658728395199E+03    0.28319E+03   -0.25834E+02 13401   0.444E+01    0.550E+01
RMM:   8    -0.668161555759E+03   -0.94332E+01   -0.82280E+01 14788   0.164E+01    0.464E+01
RMM:   9    -0.660171275867E+03    0.79903E+01   -0.38024E+01 13880   0.145E+01    0.480E+01
RMM:  10    -0.645225368323E+03    0.14946E+02   -0.11554E+01 14986   0.780E+00    0.180E+01
RMM:  11    -0.644763773508E+03    0.46159E+00   -0.49221E+00 14892   0.476E+00    0.222E+01
RMM:  12    -0.643522498090E+03    0.12413E+01   -0.52109E+00 13963   0.536E+00    0.189E+01
RMM:  13    -0.643367335502E+03    0.15516E+00   -0.87342E+00 14202   0.468E+00    0.165E+01
RMM:  14    -0.643772985952E+03   -0.40565E+00   -0.36269E+00 14023   0.388E+00    0.209E+01
RMM:  15    -0.642366427005E+03    0.14066E+01   -0.17751E+00 13797   0.290E+00    0.121E+01
RMM:  16    -0.642067300322E+03    0.29913E+00   -0.10638E+00 13700   0.224E+00    0.888E+00
RMM:  17    -0.642329954998E+03   -0.26265E+00   -0.70891E-01 13342   0.214E+00    0.121E+01
RMM:  18    -0.641734522201E+03    0.59543E+00   -0.35081E-01 13150   0.158E+00    0.396E+00
RMM:  19    -0.641760283938E+03   -0.25762E-01   -0.28223E-01 14859   0.982E-01    0.487E+00
RMM:  20    -0.641755246807E+03    0.50371E-02   -0.24204E-01 14442   0.897E-01    0.404E+00
RMM:  21    -0.641703669850E+03    0.51577E-01   -0.17051E-01 14859   0.736E-01    0.177E+00
RMM:  22    -0.641734256378E+03   -0.30587E-01   -0.10116E-01 13523   0.609E-01    0.327E+00
RMM:  23    -0.641695206044E+03    0.39050E-01   -0.56605E-02 13706   0.505E-01    0.114E+00
RMM:  24    -0.641698531697E+03   -0.33257E-02   -0.37718E-02 13996   0.282E-01    0.116E+00
RMM:  25    -0.641694033925E+03    0.44978E-02   -0.23331E-02 14459   0.218E-01    0.415E-01
RMM:  26    -0.641695144536E+03   -0.11106E-02   -0.12854E-02 14284   0.166E-01    0.521E-01
RMM:  27    -0.641694566209E+03    0.57833E-03   -0.10617E-02 14085   0.131E-01    0.118E-01
RMM:  28    -0.641695094742E+03   -0.52853E-03   -0.69283E-03 13641   0.103E-01    0.883E-02
RMM:  29    -0.641695387596E+03   -0.29285E-03   -0.37526E-03 11726   0.788E-02    0.467E-02
RMM:  30    -0.641695688104E+03   -0.30051E-03   -0.32693E-03 10369   0.544E-02    0.356E-02
RMM:  31    -0.641695849191E+03   -0.16109E-03   -0.17824E-03  8989   0.421E-02    0.156E-02
RMM:  32    -0.641695984736E+03   -0.13555E-03   -0.14037E-03  8703   0.314E-02    0.623E-03
RMM:  33    -0.641696035791E+03   -0.51054E-04   -0.54724E-04  8060   0.305E-02    0.872E-03
RMM:  34    -0.641696069117E+03   -0.33327E-04   -0.34168E-04  8008   0.212E-02    0.309E-03
RMM:  35    -0.641696083977E+03   -0.14860E-04   -0.15760E-04  7716   0.190E-02    0.447E-03
RMM:  36    -0.641696094949E+03   -0.10972E-04   -0.11208E-04  7564   0.144E-02    0.218E-03
RMM:  37    -0.641696100570E+03   -0.56209E-05   -0.56089E-05  7162   0.145E-02
   1 F= -.64169610E+03 E0= -.64155799E+03  d E =-.641696E+03
       N       E                     dE             d eps       ncg     rms          rms(c)
DAV:   1    -0.909089273249E+03   -0.26739E+03   -0.86167E+03 13104   0.409E+02    0.115E+02
RMM:   2    -0.875865914916E+03    0.33223E+02   -0.22211E+03 10996   0.182E+02    0.955E+01
RMM:   3    -0.709761670846E+03    0.16610E+03   -0.21420E+02 13181   0.452E+01    0.700E+01
RMM:   4    -0.666485520771E+03    0.43276E+02   -0.95339E+01 12653   0.305E+01    0.434E+01
RMM:   5    -0.650655868403E+03    0.15830E+02   -0.80194E+01 11416   0.314E+01    0.472E+01
RMM:   6    -0.632765582441E+03    0.17890E+02   -0.31915E+01 12002   0.200E+01    0.203E+01
RMM:   7    -0.634299841378E+03   -0.15343E+01   -0.16049E+01 13801   0.945E+00    0.234E+01
RMM:   8    -0.631067259103E+03    0.32326E+01   -0.37975E+00 13840   0.598E+00    0.886E+00
RMM:   9    -0.631094675374E+03   -0.27416E-01   -0.26429E+00 15258   0.321E+00    0.821E+00
RMM:  10    -0.630948304451E+03    0.14637E+00   -0.13369E+00 14663   0.319E+00    0.490E+00
RMM:  11    -0.631037276265E+03   -0.88972E-01   -0.63812E-01 15064   0.196E+00    0.537E+00
RMM:  12    -0.631052706494E+03   -0.15430E-01   -0.47752E-01 15321   0.179E+00    0.370E+00
RMM:  13    -0.631079134763E+03   -0.26428E-01   -0.37097E-01 15886   0.143E+00    0.329E+00
RMM:  14    -0.631151537778E+03   -0.72403E-01   -0.26134E-01 14979   0.146E+00    0.385E+00
RMM:  15    -0.631104238933E+03    0.47299E-01   -0.18305E-01 15228   0.114E+00    0.171E+00
RMM:  16    -0.631117484365E+03   -0.13245E-01   -0.12762E-01 15740   0.854E-01    0.166E+00
RMM:  17    -0.631114156318E+03    0.33280E-02   -0.90729E-02 15558   0.760E-01    0.126E+00
RMM:  18    -0.631116082962E+03   -0.19266E-02   -0.56426E-02 16002   0.601E-01    0.120E+00
RMM:  19    -0.631111919181E+03    0.41638E-02   -0.39251E-02 15781   0.439E-01    0.505E-01
RMM:  20    -0.631112172915E+03   -0.25373E-03   -0.21671E-02 16008   0.326E-01    0.331E-01
RMM:  21    -0.631112772260E+03   -0.59934E-03   -0.11945E-02 15733   0.280E-01    0.211E-01
RMM:  22    -0.631113413505E+03   -0.64125E-03   -0.93088E-03 15848   0.191E-01    0.129E-01
RMM:  23    -0.631113948094E+03   -0.53459E-03   -0.65872E-03 15393   0.153E-01    0.859E-02
RMM:  24    -0.631114237597E+03   -0.28950E-03   -0.35250E-03 15100   0.114E-01    0.552E-02
RMM:  25    -0.631114410401E+03   -0.17280E-03   -0.19578E-03 14425   0.104E-01    0.194E-02
RMM:  26    -0.631114564602E+03   -0.15420E-03   -0.16487E-03 13244   0.763E-02    0.250E-02
RMM:  27    -0.631114663487E+03   -0.98885E-04   -0.10499E-03 12223   0.735E-02    0.174E-02
RMM:  28    -0.631114743264E+03   -0.79777E-04   -0.79510E-04 11855   0.566E-02    0.480E-03
RMM:  29    -0.631114788012E+03   -0.44748E-04   -0.46152E-04 11968   0.455E-02    0.421E-03
RMM:  30    -0.631114815088E+03   -0.27076E-04   -0.28123E-04 11661   0.332E-02    0.305E-03
RMM:  31    -0.631114829863E+03   -0.14775E-04   -0.16187E-04 11195   0.292E-02    0.414E-03
RMM:  32    -0.631114840826E+03   -0.10963E-04   -0.10057E-04 10607   0.233E-02    0.126E-03
RMM:  33    -0.631114847330E+03   -0.65041E-05   -0.72545E-05  9863   0.203E-02
   2 F= -.63111485E+03 E0= -.63102502E+03  d E =0.105813E+02
       N       E                     dE             d eps       ncg     rms          rms(c)
DAV:   1    -0.791624703254E+03   -0.16051E+03   -0.34430E+03 12648   0.246E+02    0.124E+02
RMM:   2    -0.125461179262E+04   -0.46299E+03   -0.94668E+02 13247   0.815E+01    0.115E+02
RMM:   3    -0.737213055177E+03    0.51740E+03   -0.34452E+02 13634   0.702E+01    0.668E+01
RMM:   4    -0.684478707545E+03    0.52734E+02   -0.27294E+02 11329   0.574E+01    0.596E+01
RMM:   5    -0.658911720025E+03    0.25567E+02   -0.49286E+01 12598   0.189E+01    0.297E+01
RMM:   6    -0.662114345746E+03   -0.32026E+01   -0.24816E+01 12931   0.115E+01    0.406E+01
RMM:   7    -0.657655639671E+03    0.44587E+01   -0.14880E+01 12822   0.105E+01    0.272E+01
RMM:   8    -0.652038258557E+03    0.56174E+01   -0.41092E+00 12334   0.647E+00    0.194E+01
RMM:   9    -0.649076675858E+03    0.29616E+01   -0.52081E+00 12743   0.621E+00    0.990E+00
RMM:  10    -0.649435342794E+03   -0.35867E+00   -0.25664E+00 13911   0.390E+00    0.116E+01
RMM:  11    -0.648953504121E+03    0.48184E+00   -0.62258E-01 13353   0.250E+00    0.886E+00
RMM:  12    -0.648668129005E+03    0.28538E+00   -0.41957E-01 14179   0.186E+00    0.364E+00
RMM:  13    -0.648705531936E+03   -0.37403E-01   -0.29698E-01 13601   0.177E+00    0.443E+00
RMM:  14    -0.648636131154E+03    0.69401E-01   -0.18140E-01 15689   0.993E-01    0.188E+00
RMM:  15    -0.648692721662E+03   -0.56591E-01   -0.14202E-01 15497   0.906E-01    0.328E+00
RMM:  16    -0.648675985674E+03    0.16736E-01   -0.93260E-02 15627   0.692E-01    0.191E+00
RMM:  17    -0.648719261910E+03   -0.43276E-01   -0.71378E-02 15608   0.602E-01    0.308E+00
RMM:  18    -0.648677884277E+03    0.41378E-01   -0.65146E-02 13945   0.733E-01    0.189E+00
RMM:  19    -0.648671451263E+03    0.64330E-02   -0.58473E-02 15153   0.535E-01    0.112E+00
RMM:  20    -0.648675875653E+03   -0.44244E-02   -0.29997E-02 15094   0.407E-01    0.110E+00
RMM:  21    -0.648672582973E+03    0.32927E-02   -0.22572E-02 15180   0.352E-01    0.599E-01
RMM:  22    -0.648673626875E+03   -0.10439E-02   -0.16437E-02 14995   0.248E-01    0.567E-01
RMM:  23    -0.648672885279E+03    0.74160E-03   -0.92861E-03 14657   0.224E-01    0.333E-01
RMM:  24    -0.648672919781E+03   -0.34502E-04   -0.72971E-03 14168   0.182E-01    0.212E-01
RMM:  25    -0.648673131435E+03   -0.21165E-03   -0.47662E-03 13698   0.122E-01    0.119E-01
RMM:  26    -0.648673245073E+03   -0.11364E-03   -0.23429E-03 12983   0.106E-01    0.759E-02
RMM:  27    -0.648673362745E+03   -0.11767E-03   -0.20053E-03 13231   0.899E-02    0.355E-02
RMM:  28    -0.648673500198E+03   -0.13745E-03   -0.14364E-03 12411   0.659E-02    0.465E-02
RMM:  29    -0.648673525523E+03   -0.25325E-04   -0.59835E-04 11354   0.635E-02    0.143E-02
RMM:  30    -0.648673582607E+03   -0.57084E-04   -0.61678E-04 12082   0.414E-02    0.123E-02
RMM:  31    -0.648673608014E+03   -0.25407E-04   -0.31497E-04 11965   0.356E-02    0.845E-03
RMM:  32    -0.648673629877E+03   -0.21863E-04   -0.23957E-04 11502   0.297E-02    0.632E-03
RMM:  33    -0.648673640737E+03   -0.10860E-04   -0.13825E-04 11223   0.252E-02    0.205E-03
RMM:  34    -0.648673649587E+03   -0.88499E-05   -0.10066E-04 10585   0.210E-02    0.216E-03
RMM:  35    -0.648673654270E+03   -0.46825E-05   -0.64247E-05  9935   0.173E-02
   3 F= -.64867365E+03 E0= -.64855804E+03  d E =-.697755E+01
       N       E                     dE             d eps       ncg     rms          rms(c)
DAV:   1    -0.648812753394E+03   -0.13910E+00   -0.31323E+00 13368   0.750E+00    0.312E+00
RMM:   2    -0.649618855325E+03   -0.80610E+00   -0.15226E+00 11708   0.435E+00    0.114E+01
RMM:   3    -0.649021818923E+03    0.59704E+00   -0.42185E-01 11573   0.245E+00    0.783E+00
RMM:   4    -0.648735338827E+03    0.28648E+00   -0.12388E-01 11599   0.120E+00    0.255E+00
RMM:   5    -0.648723491019E+03    0.11848E-01   -0.50249E-02 12252   0.782E-01    0.213E+00
RMM:   6    -0.648720414840E+03    0.30762E-02   -0.36979E-02 12251   0.525E-01    0.204E+00
RMM:   7    -0.648697067527E+03    0.23347E-01   -0.16876E-02 11973   0.403E-01    0.912E-01
RMM:   8    -0.648699700583E+03   -0.26331E-02   -0.84435E-03 11800   0.299E-01    0.126E+00
RMM:   9    -0.648695586447E+03    0.41141E-02   -0.53928E-03 12459   0.227E-01    0.706E-01
RMM:  10    -0.648693224937E+03    0.23615E-02   -0.23330E-03 12576   0.139E-01    0.323E-01
RMM:  11    -0.648693214359E+03    0.10578E-04   -0.10548E-03 11692   0.991E-02    0.288E-01
RMM:  12    -0.648692920367E+03    0.29399E-03   -0.52851E-04 12174   0.599E-02    0.134E-01
RMM:  13    -0.648692878250E+03    0.42118E-04   -0.24058E-04 12250   0.422E-02    0.840E-02
RMM:  14    -0.648692954560E+03   -0.76310E-04   -0.16997E-04 10238   0.325E-02    0.125E-01
RMM:  15    -0.648692919749E+03    0.34811E-04   -0.93777E-05  9405   0.295E-02    0.487E-02
RMM:  16    -0.648692999558E+03   -0.79810E-04   -0.13572E-04 11245   0.261E-02    0.768E-02
RMM:  17    -0.648692990722E+03    0.88367E-05   -0.69189E-05  9256   0.264E-02
   4 F= -.64869299E+03 E0= -.64857829E+03  d E =-.699689E+01
       N       E                     dE             d eps       ncg     rms          rms(c)
DAV:   1    -0.636519121212E+03    0.12174E+02   -0.10074E+03 10080   0.124E+02    0.773E+00
RMM:   2    -0.655946965858E+03   -0.19428E+02   -0.16048E+02 14837   0.371E+01    0.282E+01
RMM:   3    -0.652270379971E+03    0.36766E+01   -0.13603E+01 11481   0.153E+01    0.126E+01
RMM:   4    -0.652027681650E+03    0.24270E+00   -0.48738E+00 13994   0.608E+00    0.101E+01
RMM:   5    -0.651735361738E+03    0.29232E+00   -0.13875E+00 13385   0.344E+00    0.818E+00
RMM:   6    -0.651484972612E+03    0.25039E+00   -0.69885E-01 14023   0.201E+00    0.520E+00
RMM:   7    -0.651431411503E+03    0.53561E-01   -0.48423E-01 14451   0.146E+00    0.465E+00
RMM:   8    -0.651478497204E+03   -0.47086E-01   -0.41674E-01 12849   0.174E+00    0.611E+00
RMM:   9    -0.651306789552E+03    0.17171E+00   -0.33618E-01 12980   0.157E+00    0.210E+00
RMM:  10    -0.651316999568E+03   -0.10210E-01   -0.16301E-01 14628   0.826E-01    0.266E+00
RMM:  11    -0.651287236448E+03    0.29763E-01   -0.67678E-02 14055   0.631E-01    0.159E+00
RMM:  12    -0.651281303283E+03    0.59332E-02   -0.41912E-02 14792   0.375E-01    0.877E-01
RMM:  13    -0.651283856225E+03   -0.25529E-02   -0.28026E-02 14971   0.311E-01    0.973E-01
RMM:  14    -0.651279681420E+03    0.41748E-02   -0.15118E-02 14765   0.258E-01    0.383E-01
RMM:  15    -0.651281916133E+03   -0.22347E-02   -0.98376E-03 14727   0.192E-01    0.626E-01
RMM:  16    -0.651280311662E+03    0.16045E-02   -0.50674E-03 14244   0.139E-01    0.219E-01
RMM:  17    -0.651280799093E+03   -0.48743E-03   -0.37707E-03 13886   0.101E-01    0.283E-01
RMM:  18    -0.651280728423E+03    0.70670E-04   -0.22451E-03 14126   0.864E-02    0.152E-01
RMM:  19    -0.651280795093E+03   -0.66671E-04   -0.15743E-03 13332   0.716E-02    0.100E-01
RMM:  20    -0.651280811202E+03   -0.16109E-04   -0.77819E-04 12523   0.514E-02    0.496E-02
RMM:  21    -0.651280865424E+03   -0.54222E-04   -0.59543E-04 11877   0.392E-02    0.597E-02
RMM:  22    -0.651280876052E+03   -0.10628E-04   -0.41234E-04 12206   0.368E-02    0.270E-02
RMM:  23    -0.651280906509E+03   -0.30457E-04   -0.28319E-04 10509   0.311E-02    0.374E-02
RMM:  24    -0.651280908327E+03   -0.18176E-05   -0.14110E-04  9417   0.231E-02    0.107E-02
RMM:  25    -0.651280916122E+03   -0.77947E-05   -0.12842E-04  8907   0.205E-02    0.476E-03
RMM:  26    -0.651280922958E+03   -0.68361E-05   -0.67475E-05  8181   0.184E-02
   5 F= -.65128092E+03 E0= -.65117266E+03  d E =-.258793E+01
       N       E                     dE             d eps       ncg     rms          rms(c)
DAV:   1    -0.651261475383E+03    0.19441E-01   -0.15025E+00 10416   0.479E+00    0.320E-01
RMM:   2    -0.651293708981E+03   -0.32234E-01   -0.25302E-01 14832   0.148E+00    0.145E+00
RMM:   3    -0.651285491766E+03    0.82172E-02   -0.21031E-02 11494   0.565E-01    0.375E-01
RMM:   4    -0.651286335650E+03   -0.84388E-03   -0.70453E-03 14168   0.230E-01    0.454E-01
RMM:   5    -0.651285115188E+03    0.12205E-02   -0.17505E-03 12709   0.130E-01    0.228E-01
RMM:   6    -0.651284967933E+03    0.14725E-03   -0.79697E-04 12598   0.678E-02    0.169E-01
RMM:   7    -0.651285044568E+03   -0.76634E-04   -0.96846E-04 11995   0.734E-02    0.229E-01
RMM:   8    -0.651284833072E+03    0.21150E-03   -0.52541E-04 11342   0.617E-02    0.142E-01
RMM:   9    -0.651284813094E+03    0.19978E-04   -0.27195E-04 10299   0.447E-02    0.109E-01
RMM:  10    -0.651284741536E+03    0.71557E-04   -0.92172E-05  7830   0.257E-02    0.391E-02
RMM:  11    -0.651284745147E+03   -0.36105E-05   -0.54044E-05  6782   0.204E-02
   6 F= -.65128475E+03 E0= -.65117606E+03  d E =-.259175E+01
       N       E                     dE             d eps       ncg     rms          rms(c)
DAV:   1    -0.651865754408E+03   -0.58101E+00   -0.28802E+02 13344   0.912E+01    0.193E+01
RMM:   2    -0.681891497079E+03   -0.30026E+02   -0.81320E+01 13322   0.287E+01    0.470E+01
RMM:   3    -0.654010309506E+03    0.27881E+02   -0.17642E+01 11850   0.162E+01    0.176E+01
RMM:   4    -0.653227454488E+03    0.78286E+00   -0.48709E+00 13304   0.572E+00    0.148E+01
RMM:   5    -0.653108629580E+03    0.11882E+00   -0.19176E+00 12276   0.436E+00    0.148E+01
RMM:   6    -0.651948709899E+03    0.11599E+01   -0.88241E-01 12078   0.297E+00    0.571E+00
RMM:   7    -0.652111313741E+03   -0.16260E+00   -0.50205E-01 12499   0.201E+00    0.805E+00
RMM:   8    -0.651867531590E+03    0.24378E+00   -0.33129E-01 12290   0.169E+00    0.449E+00
RMM:   9    -0.651780278228E+03    0.87253E-01   -0.17774E-01 13230   0.107E+00    0.229E+00
RMM:  10    -0.651816409131E+03   -0.36131E-01   -0.10506E-01 13871   0.853E-01    0.335E+00
RMM:  11    -0.651759914063E+03    0.56495E-01   -0.46884E-02 13494   0.615E-01    0.107E+00
RMM:  12    -0.651760284722E+03   -0.37066E-03   -0.32612E-02 15566   0.386E-01    0.944E-01
RMM:  13    -0.651759164052E+03    0.11207E-02   -0.18696E-02 15404   0.288E-01    0.774E-01
RMM:  14    -0.651758212348E+03    0.95170E-03   -0.11497E-02 15398   0.216E-01    0.419E-01
RMM:  15    -0.651759318099E+03   -0.11058E-02   -0.73426E-03 15230   0.161E-01    0.398E-01
RMM:  16    -0.651759286121E+03    0.31978E-04   -0.41899E-03 15006   0.142E-01    0.292E-01
RMM:  17    -0.651760234180E+03   -0.94806E-03   -0.35510E-03 14503   0.129E-01    0.398E-01
RMM:  18    -0.651759752162E+03    0.48202E-03   -0.24758E-03 14354   0.108E-01    0.110E-01
RMM:  19    -0.651760076438E+03   -0.32428E-03   -0.19098E-03 13958   0.843E-02    0.175E-01
RMM:  20    -0.651759958132E+03    0.11831E-03   -0.11527E-03 13379   0.742E-02    0.475E-02
RMM:  21    -0.651760040104E+03   -0.81972E-04   -0.75248E-04 12829   0.550E-02    0.753E-02
RMM:  22    -0.651760042609E+03   -0.25045E-05   -0.46522E-04 12322   0.481E-02    0.243E-02
RMM:  23    -0.651760069051E+03   -0.26442E-04   -0.33599E-04 11771   0.335E-02    0.127E-02
RMM:  24    -0.651760084536E+03   -0.15485E-04   -0.19165E-04 11099   0.325E-02    0.172E-02
RMM:  25    -0.651760095312E+03   -0.10775E-04   -0.14088E-04 10971   0.236E-02    0.857E-03
RMM:  26    -0.651760100143E+03   -0.48319E-05   -0.87978E-05 10517   0.199E-02
   7 F= -.65176010E+03 E0= -.65165065E+03  d E =-.475355E+00
       N       E                     dE             d eps       ncg     rms          rms(c)
DAV:   1    -0.651760585045E+03   -0.48973E-03   -0.13699E+01 13008   0.208E+01    0.400E+00
RMM:   2    -0.653286372396E+03   -0.15258E+01   -0.46334E+00 12039   0.781E+00    0.138E+01
RMM:   3    -0.652174041263E+03    0.11123E+01   -0.98419E-01 12080   0.355E+00    0.804E+00
RMM:   4    -0.651865137948E+03    0.30890E+00   -0.27942E-01 12492   0.159E+00    0.305E+00
RMM:   5    -0.651854906841E+03    0.10231E-01   -0.96026E-02 12564   0.989E-01    0.277E+00
RMM:   6    -0.651828551706E+03    0.26355E-01   -0.55252E-02 12167   0.700E-01    0.212E+00
RMM:   7    -0.651808183884E+03    0.20368E-01   -0.27424E-02 11887   0.498E-01    0.127E+00
RMM:   8    -0.651813890028E+03   -0.57061E-02   -0.20182E-02 12246   0.423E-01    0.164E+00
RMM:   9    -0.651802351142E+03    0.11539E-01   -0.11784E-02 12225   0.343E-01    0.761E-01
RMM:  10    -0.651800928874E+03    0.14223E-02   -0.67252E-03 13255   0.216E-01    0.533E-01
RMM:  11    -0.651801029261E+03   -0.10039E-03   -0.34427E-03 13351   0.156E-01    0.487E-01
RMM:  12    -0.651799736795E+03    0.12925E-02   -0.17726E-03 13529   0.948E-02    0.119E-01
RMM:  13    -0.651799956676E+03   -0.21988E-03   -0.10045E-03 13433   0.668E-02    0.198E-01
RMM:  14    -0.651799875500E+03    0.81176E-04   -0.55887E-04 12359   0.524E-02    0.939E-02
RMM:  15    -0.651799926272E+03   -0.50772E-04   -0.34770E-04 12642   0.378E-02    0.954E-02
RMM:  16    -0.651799992254E+03   -0.65982E-04   -0.24492E-04 11693   0.366E-02    0.104E-01
RMM:  17    -0.651799983709E+03    0.85454E-05   -0.16052E-04 10716   0.328E-02    0.598E-02
RMM:  18    -0.651800023902E+03   -0.40193E-04   -0.14769E-04 11469   0.283E-02    0.582E-02
RMM:  19    -0.651800014777E+03    0.91249E-05   -0.10154E-04 10782   0.240E-02    0.190E-02
RMM:  20    -0.651800021518E+03   -0.67413E-05   -0.55539E-05  8577   0.193E-02
   8 F= -.65180002E+03 E0= -.65169088E+03  d E =-.515276E+00
       N       E                     dE             d eps       ncg     rms          rms(c)
DAV:   1    -0.647808176887E+03    0.39918E+01   -0.22709E+02 13752   0.929E+01    0.813E+00
RMM:   2    -0.659447356919E+03   -0.11639E+02   -0.68661E+01 13327   0.233E+01    0.294E+01
RMM:   3    -0.653371223412E+03    0.60761E+01   -0.64065E+00 11955   0.945E+00    0.139E+01
RMM:   4    -0.652460907214E+03    0.91032E+00   -0.23858E+00 13561   0.375E+00    0.540E+00
RMM:   5    -0.652452582188E+03    0.83250E-02   -0.52399E-01 12367   0.217E+00    0.661E+00
RMM:   6    -0.652232688419E+03    0.21989E+00   -0.25420E-01 11896   0.162E+00    0.355E+00
RMM:   7    -0.652201173200E+03    0.31515E-01   -0.20666E-01 12798   0.109E+00    0.296E+00
RMM:   8    -0.652257632145E+03   -0.56459E-01   -0.16561E-01 11693   0.132E+00    0.458E+00
RMM:   9    -0.652148221515E+03    0.10941E+00   -0.90849E-02 12280   0.957E-01    0.143E+00
RMM:  10    -0.652146532815E+03    0.16887E-02   -0.46919E-02 14613   0.483E-01    0.114E+00
RMM:  11    -0.652143425849E+03    0.31070E-02   -0.19675E-02 14862   0.310E-01    0.880E-01
RMM:  12    -0.652141113277E+03    0.23126E-02   -0.10309E-02 14851   0.216E-01    0.424E-01
RMM:  13    -0.652142193979E+03   -0.10807E-02   -0.70492E-03 15267   0.162E-01    0.474E-01
RMM:  14    -0.652141469260E+03    0.72472E-03   -0.36125E-03 15079   0.118E-01    0.192E-01
RMM:  15    -0.652142284139E+03   -0.81488E-03   -0.22863E-03 14072   0.106E-01    0.363E-01
RMM:  16    -0.652142063689E+03    0.22045E-03   -0.17637E-03 13914   0.916E-02    0.147E-01
RMM:  17    -0.652142206847E+03   -0.14316E-03   -0.11835E-03 13627   0.708E-02    0.149E-01
RMM:  18    -0.652142202334E+03    0.45136E-05   -0.88095E-04 13562   0.584E-02    0.354E-02
RMM:  19    -0.652142258568E+03   -0.56234E-04   -0.44246E-04 12854   0.509E-02    0.527E-02
RMM:  20    -0.652142278562E+03   -0.19995E-04   -0.37729E-04 12298   0.362E-02    0.259E-02
RMM:  21    -0.652142296996E+03   -0.18433E-04   -0.20976E-04 11531   0.318E-02    0.195E-02
RMM:  22    -0.652142308557E+03   -0.11561E-04   -0.13297E-04 10652   0.247E-02    0.153E-02
RMM:  23    -0.652142316081E+03   -0.75245E-05   -0.86646E-05  9696   0.211E-02
   9 F= -.65214232E+03 E0= -.65203863E+03  d E =-.342295E+00
       N       E                     dE             d eps       ncg     rms          rms(c)
DAV:   1    -0.652117488863E+03    0.24820E-01   -0.12933E+00 13056   0.717E+00    0.635E-01
RMM:   2    -0.652180973439E+03   -0.63485E-01   -0.38641E-01 14087   0.171E+00    0.225E+00
RMM:   3    -0.652154654068E+03    0.26319E-01   -0.38351E-02 11627   0.747E-01    0.132E+00
RMM:   4    -0.652146795432E+03    0.78586E-02   -0.12841E-02 12856   0.323E-01    0.472E-01
RMM:   5    -0.652147070761E+03   -0.27533E-03   -0.35354E-03 12205   0.187E-01    0.576E-01
RMM:   6    -0.652145367050E+03    0.17037E-02   -0.17073E-03 11873   0.130E-01    0.266E-01
RMM:   7    -0.652145258640E+03    0.10841E-03   -0.10910E-03 11739   0.853E-02    0.248E-01
RMM:   8    -0.652145597444E+03   -0.33880E-03   -0.88090E-04 11266   0.916E-02    0.352E-01
RMM:   9    -0.652144905979E+03    0.69146E-03   -0.52029E-04 11130   0.749E-02    0.101E-01
RMM:  10    -0.652144904036E+03    0.19434E-05   -0.26213E-04 10129   0.442E-02    0.957E-02
RMM:  11    -0.652144878717E+03    0.25319E-04   -0.10835E-04  7869   0.294E-02    0.738E-02
RMM:  12    -0.652144856883E+03    0.21834E-04   -0.53156E-05  6962   0.226E-02    0.297E-02
RMM:  13    -0.652144859916E+03   -0.30326E-05   -0.33297E-05  6595   0.180E-02
  10 F= -.65214486E+03 E0= -.65204078E+03  d E =-.344838E+00
       N       E                     dE             d eps       ncg     rms          rms(c)
DAV:   1    -0.649605866915E+03    0.25390E+01   -0.87466E+01 10224   0.607E+01    0.271E+00
RMM:   2    -0.652591638933E+03   -0.29858E+01   -0.27580E+01 14715   0.140E+01    0.820E+00
RMM:   3    -0.652367691425E+03    0.22395E+00   -0.22195E+00 11481   0.509E+00    0.285E+00
RMM:   4    -0.652440612524E+03   -0.72921E-01   -0.48438E-01 13553   0.184E+00    0.390E+00
RMM:   5    -0.652367324629E+03    0.73288E-01   -0.11121E-01 12820   0.101E+00    0.140E+00
RMM:   6    -0.652362278274E+03    0.50464E-02   -0.52746E-02 14654   0.411E-01    0.101E+00
RMM:   7    -0.652361631870E+03    0.64640E-03   -0.23008E-02 14176   0.305E-01    0.107E+00
RMM:   8    -0.652359409688E+03    0.22222E-02   -0.24175E-02 13040   0.371E-01    0.116E+00
RMM:   9    -0.652352758492E+03    0.66512E-02   -0.15070E-02 12886   0.305E-01    0.484E-01
RMM:  10    -0.652354788169E+03   -0.20297E-02   -0.86260E-03 12931   0.214E-01    0.725E-01
RMM:  11    -0.652352243520E+03    0.25446E-02   -0.32289E-03 11879   0.162E-01    0.314E-01
RMM:  12    -0.652352062782E+03    0.18074E-03   -0.23075E-03 12579   0.882E-02    0.202E-01
RMM:  13    -0.652352096348E+03   -0.33566E-04   -0.15735E-03 13187   0.745E-02    0.196E-01
RMM:  14    -0.652351941798E+03    0.15455E-03   -0.77211E-04 12297   0.586E-02    0.906E-02
RMM:  15    -0.652352044687E+03   -0.10289E-03   -0.48399E-04 10765   0.454E-02    0.142E-01
RMM:  16    -0.652351956320E+03    0.88367E-04   -0.26064E-04  8587   0.339E-02    0.411E-02
RMM:  17    -0.652351974972E+03   -0.18652E-04   -0.20077E-04  8320   0.241E-02    0.410E-02
RMM:  18    -0.652351970826E+03    0.41455E-05   -0.93892E-05  7394   0.202E-02
  11 F= -.65235197E+03 E0= -.65225126E+03  d E =-.207111E+00
       N       E                     dE             d eps       ncg     rms          rms(c)
DAV:   1    -0.651290295703E+03    0.10617E+01   -0.33604E+01 10104   0.380E+01    0.168E+00
RMM:   2    -0.652433512639E+03   -0.11432E+01   -0.10862E+01 14711   0.881E+00    0.436E+00
RMM:   3    -0.652405282512E+03    0.28230E-01   -0.94221E-01 11496   0.314E+00    0.208E+00
RMM:   4    -0.652418628097E+03   -0.13346E-01   -0.16986E-01 13513   0.115E+00    0.210E+00
RMM:   5    -0.652397647996E+03    0.20980E-01   -0.44226E-02 13236   0.595E-01    0.904E-01
RMM:   6    -0.652395435762E+03    0.22122E-02   -0.19617E-02 14463   0.260E-01    0.636E-01
RMM:   7    -0.652395177155E+03    0.25861E-03   -0.83757E-03 13946   0.189E-01    0.657E-01
RMM:   8    -0.652393985368E+03    0.11918E-02   -0.10208E-02 13186   0.241E-01    0.683E-01
RMM:   9    -0.652391706336E+03    0.22790E-02   -0.53109E-03 12623   0.188E-01    0.302E-01
RMM:  10    -0.652392359229E+03   -0.65289E-03   -0.33919E-03 12994   0.131E-01    0.400E-01
RMM:  11    -0.652391429987E+03    0.92924E-03   -0.12929E-03 11793   0.983E-02    0.126E-01
RMM:  12    -0.652391504131E+03   -0.74144E-04   -0.86626E-04 11576   0.542E-02    0.151E-01
RMM:  13    -0.652391472023E+03    0.32108E-04   -0.55700E-04 11935   0.500E-02    0.127E-01
RMM:  14    -0.652391413463E+03    0.58560E-04   -0.27930E-04  9900   0.377E-02    0.568E-02
RMM:  15    -0.652391455270E+03   -0.41807E-04   -0.18836E-04  8516   0.298E-02    0.928E-02
RMM:  16    -0.652391418763E+03    0.36507E-04   -0.10153E-04  7448   0.256E-02    0.225E-02
RMM:  17    -0.652391428547E+03   -0.97843E-05   -0.79782E-05  7341   0.178E-02
  12 F= -.65239143E+03 E0= -.65229310E+03  d E =-.246569E+00
       N       E                     dE             d eps       ncg     rms          rms(c)
DAV:   1    -0.651002929060E+03    0.13885E+01   -0.62562E+01 10080   0.470E+01    0.336E+00
RMM:   2    -0.653019643454E+03   -0.20167E+01   -0.17561E+01 14550   0.115E+01    0.759E+00
RMM:   3    -0.652678540690E+03    0.34110E+00   -0.14601E+00 11800   0.424E+00    0.588E+00
RMM:   4    -0.652590370835E+03    0.88170E-01   -0.38622E-01 12603   0.197E+00    0.324E+00
RMM:   5    -0.652568404029E+03    0.21967E-01   -0.13617E-01 13061   0.105E+00    0.265E+00
RMM:   6    -0.652522761972E+03    0.45642E-01   -0.53966E-02 13450   0.564E-01    0.951E-01
RMM:   7    -0.652535007453E+03   -0.12245E-01   -0.34212E-02 12936   0.494E-01    0.176E+00
RMM:   8    -0.652523243667E+03    0.11764E-01   -0.23639E-02 12703   0.446E-01    0.128E+00
RMM:   9    -0.652515760499E+03    0.74832E-02   -0.13133E-02 12953   0.300E-01    0.552E-01
RMM:  10    -0.652517024213E+03   -0.12637E-02   -0.90809E-03 14396   0.209E-01    0.693E-01
RMM:  11    -0.652514724463E+03    0.22998E-02   -0.38122E-03 13240   0.155E-01    0.218E-01
RMM:  12    -0.652514908972E+03   -0.18451E-03   -0.27049E-03 13884   0.890E-02    0.205E-01
RMM:  13    -0.652514819175E+03    0.89797E-04   -0.14296E-03 13897   0.661E-02    0.118E-01
RMM:  14    -0.652514844945E+03   -0.25770E-04   -0.66827E-04 12847   0.503E-02    0.991E-02
RMM:  15    -0.652514903374E+03   -0.58429E-04   -0.45266E-04 12660   0.445E-02    0.106E-01
RMM:  16    -0.652514870681E+03    0.32693E-04   -0.30852E-04 11943   0.322E-02    0.408E-02
RMM:  17    -0.652514918253E+03   -0.47573E-04   -0.17781E-04 10612   0.319E-02    0.890E-02
RMM:  18    -0.652514886717E+03    0.31536E-04   -0.13910E-04  9710   0.272E-02    0.192E-02
RMM:  19    -0.652514898065E+03   -0.11348E-04   -0.10426E-04  9072   0.203E-02    0.285E-02
RMM:  20    -0.652514895401E+03    0.26643E-05   -0.48928E-05  7654   0.190E-02
  13 F= -.65251490E+03 E0= -.65241884E+03  d E =-.123467E+00
       N       E                     dE             d eps       ncg     rms          rms(c)
DAV:   1    -0.652419524145E+03    0.95374E-01   -0.46073E+00 11256   0.127E+01    0.890E-01
RMM:   2    -0.652560026387E+03   -0.14050E+00   -0.12120E+00 14537   0.294E+00    0.207E+00
RMM:   3    -0.652533677971E+03    0.26348E-01   -0.89158E-02 11701   0.120E+00    0.157E+00
RMM:   4    -0.652525987249E+03    0.76907E-02   -0.28449E-02 12741   0.520E-01    0.798E-01
RMM:   5    -0.652525216534E+03    0.77071E-03   -0.97591E-03 12958   0.285E-01    0.736E-01
RMM:   6    -0.652521892201E+03    0.33243E-02   -0.40829E-03 13013   0.160E-01    0.293E-01
RMM:   7    -0.652522379125E+03   -0.48692E-03   -0.25059E-03 12760   0.126E-01    0.416E-01
RMM:   8    -0.652521907358E+03    0.47177E-03   -0.19404E-03 12329   0.128E-01    0.346E-01
RMM:   9    -0.652521255316E+03    0.65204E-03   -0.10544E-03 12749   0.867E-02    0.121E-01
RMM:  10    -0.652521396359E+03   -0.14104E-03   -0.64571E-04 12225   0.607E-02    0.197E-01
RMM:  11    -0.652521227351E+03    0.16901E-03   -0.29995E-04 10147   0.440E-02    0.601E-02
RMM:  12    -0.652521233013E+03   -0.56614E-05   -0.20701E-04 10103   0.258E-02    0.458E-02
RMM:  13    -0.652521235737E+03   -0.27241E-05   -0.95190E-05  7652   0.224E-02
  14 F= -.65252124E+03 E0= -.65242575E+03  d E =-.129807E+00
       N       E                     dE             d eps       ncg     rms          rms(c)
DAV:   1    -0.651209526784E+03    0.13117E+01   -0.73372E+01 13704   0.551E+01    0.553E+00
RMM:   2    -0.655147111898E+03   -0.39376E+01   -0.22327E+01 12565   0.150E+01    0.178E+01
RMM:   3    -0.653093313431E+03    0.20538E+01   -0.27598E+00 12150   0.600E+00    0.873E+00
RMM:   4    -0.652709803211E+03    0.38351E+00   -0.90916E-01 12862   0.265E+00    0.382E+00
RMM:   5    -0.652699422283E+03    0.10381E-01   -0.22285E-01 12517   0.140E+00    0.391E+00
RMM:   6    -0.652607420354E+03    0.92002E-01   -0.12011E-01 11966   0.103E+00    0.198E+00
RMM:   7    -0.652600787344E+03    0.66330E-02   -0.67590E-02 12392   0.721E-01    0.184E+00
RMM:   8    -0.652617625200E+03   -0.16838E-01   -0.55270E-02 12086   0.745E-01    0.261E+00
RMM:   9    -0.652579135647E+03    0.38490E-01   -0.26816E-02 12306   0.525E-01    0.432E-01
RMM:  10    -0.652583109078E+03   -0.39734E-02   -0.15338E-02 14377   0.294E-01    0.926E-01
RMM:  11    -0.652578858783E+03    0.42503E-02   -0.49791E-03 13459   0.211E-01    0.218E-01
RMM:  12    -0.652579360724E+03   -0.50194E-03   -0.46075E-03 14972   0.104E-01    0.246E-01
RMM:  13    -0.652579406642E+03   -0.45917E-04   -0.16761E-03 13919   0.101E-01    0.190E-01
RMM:  14    -0.652579427772E+03   -0.21130E-04   -0.12975E-03 13850   0.607E-02    0.119E-01
RMM:  15    -0.652579671325E+03   -0.24355E-03   -0.72772E-04 13500   0.596E-02    0.165E-01
RMM:  16    -0.652579648822E+03    0.22503E-04   -0.52277E-04 12850   0.554E-02    0.891E-02
RMM:  17    -0.652579773431E+03   -0.12461E-03   -0.44533E-04 13290   0.473E-02    0.111E-01
RMM:  18    -0.652579719926E+03    0.53505E-04   -0.28921E-04 12750   0.426E-02    0.267E-02
RMM:  19    -0.652579743030E+03   -0.23104E-04   -0.19872E-04 11913   0.292E-02    0.353E-02
RMM:  20    -0.652579743834E+03   -0.80364E-06   -0.10987E-04 10460   0.277E-02    0.133E-02
RMM:  21    -0.652579752699E+03   -0.88657E-05   -0.82447E-05  9401   0.203E-02
  15 F= -.65257975E+03 E0= -.65248729E+03  d E =-.585170E-01
       N       E                     dE             d eps       ncg     rms          rms(c)
DAV:   1    -0.652524065784E+03    0.55678E-01   -0.26970E+00 12936   0.107E+01    0.110E+00
RMM:   2    -0.652672514678E+03   -0.14845E+00   -0.88944E-01 13070   0.293E+00    0.320E+00
RMM:   3    -0.652599990955E+03    0.72524E-01   -0.12192E-01 12027   0.116E+00    0.159E+00
RMM:   4    -0.652589336285E+03    0.10655E-01   -0.32568E-02 12949   0.496E-01    0.848E-01
RMM:   5    -0.652588730211E+03    0.60607E-03   -0.84587E-03 12425   0.293E-01    0.827E-01
RMM:   6    -0.652584727733E+03    0.40025E-02   -0.41868E-03 12061   0.197E-01    0.367E-01
RMM:   7    -0.652584583222E+03    0.14451E-03   -0.24075E-03 12516   0.129E-01    0.353E-01
RMM:   8    -0.652585058768E+03   -0.47555E-03   -0.18735E-03 11924   0.137E-01    0.484E-01
RMM:   9    -0.652583721661E+03    0.13371E-02   -0.96016E-04 12001   0.100E-01    0.924E-02
RMM:  10    -0.652583869603E+03   -0.14794E-03   -0.50329E-04 11818   0.593E-02    0.189E-01
RMM:  11    -0.652583678632E+03    0.19097E-03   -0.18445E-04  9528   0.432E-02    0.376E-02
RMM:  12    -0.652583696640E+03   -0.18008E-04   -0.16295E-04 10381   0.227E-02    0.517E-02
RMM:  13    -0.652583687295E+03    0.93446E-05   -0.56022E-05  7336   0.205E-02
  16 F= -.65258369E+03 E0= -.65249064E+03  d E =-.624516E-01
       N       E                     dE             d eps       ncg     rms          rms(c)
DAV:   1    -0.650839688225E+03    0.17440E+01   -0.64111E+01 10800   0.529E+01    0.280E+00
RMM:   2    -0.652926575617E+03   -0.20869E+01   -0.19647E+01 14762   0.109E+01    0.670E+00
RMM:   3    -0.652747990011E+03    0.17859E+00   -0.11257E+00 11409   0.446E+00    0.459E+00
RMM:   4    -0.652693332835E+03    0.54657E-01   -0.40180E-01 12604   0.185E+00    0.244E+00
RMM:   5    -0.652668579610E+03    0.24753E-01   -0.10233E-01 13529   0.787E-01    0.181E+00
RMM:   6    -0.652651220336E+03    0.17359E-01   -0.29750E-02 13383   0.418E-01    0.775E-01
RMM:   7    -0.652657053941E+03   -0.58336E-02   -0.22184E-02 13265   0.338E-01    0.135E+00
RMM:   8    -0.652647506455E+03    0.95475E-02   -0.18991E-02 12621   0.355E-01    0.726E-01
RMM:   9    -0.652646278191E+03    0.12283E-02   -0.86905E-03 13016   0.232E-01    0.580E-01
RMM:  10    -0.652646060510E+03    0.21768E-03   -0.55801E-03 13787   0.185E-01    0.509E-01
RMM:  11    -0.652644815477E+03    0.12450E-02   -0.27541E-03 13394   0.124E-01    0.174E-01
RMM:  12    -0.652645046203E+03   -0.23073E-03   -0.16925E-03 13719   0.760E-02    0.227E-01
RMM:  13    -0.652644876765E+03    0.16944E-03   -0.90845E-04 13309   0.598E-02    0.114E-01
RMM:  14    -0.652644882445E+03   -0.56799E-05   -0.51732E-04 12775   0.450E-02    0.827E-02
RMM:  15    -0.652644891648E+03   -0.92031E-05   -0.33939E-04 12386   0.327E-02    0.510E-02
RMM:  16    -0.652644900839E+03   -0.91903E-05   -0.15987E-04 10256   0.298E-02    0.473E-02
RMM:  17    -0.652644910813E+03   -0.99741E-05   -0.12083E-04  9066   0.259E-02    0.530E-02
RMM:  18    -0.652644901951E+03    0.88618E-05   -0.71532E-05  7817   0.234E-02
  17 F= -.65264490E+03 E0= -.65255235E+03  d E =-.612147E-01
       N       E                     dE             d eps       ncg     rms          rms(c)
DAV:   1    -0.652611466105E+03    0.33445E-01   -0.93907E-01 10608   0.668E+00    0.358E-01
RMM:   2    -0.652647250062E+03   -0.35784E-01   -0.34767E-01 14735   0.147E+00    0.601E-01
RMM:   3    -0.652647142966E+03    0.10710E-03   -0.30705E-02 11602   0.550E-01    0.548E-01
RMM:   4    -0.652646704461E+03    0.43851E-03   -0.57546E-03 12397   0.219E-01    0.376E-01
RMM:   5    -0.652646142778E+03    0.56168E-03   -0.14937E-03 11761   0.121E-01    0.235E-01
RMM:   6    -0.652645872081E+03    0.27070E-03   -0.67473E-04 11761   0.569E-02    0.115E-01
RMM:   7    -0.652645945228E+03   -0.73147E-04   -0.38456E-04 10575   0.469E-02    0.163E-01
RMM:   8    -0.652645837154E+03    0.10807E-03   -0.32932E-04 11007   0.513E-02    0.115E-01
RMM:   9    -0.652645776173E+03    0.60982E-04   -0.18230E-04  9844   0.359E-02    0.598E-02
RMM:  10    -0.652645780478E+03   -0.43050E-05   -0.10327E-04  8305   0.280E-02    0.629E-02
RMM:  11    -0.652645761621E+03    0.18857E-04   -0.46909E-05  6686   0.207E-02    0.227E-02
RMM:  12    -0.652645764804E+03   -0.31838E-05   -0.35822E-05  6521   0.176E-02
  18 F= -.65264576E+03 E0= -.65255328E+03  d E =-.620775E-01
       N       E                     dE             d eps       ncg     rms          rms(c)
DAV:   1    -0.651974297774E+03    0.67146E+00   -0.22956E+01 10752   0.310E+01    0.142E+00
RMM:   2    -0.652701075385E+03   -0.72678E+00   -0.73007E+00 14801   0.627E+00    0.271E+00
RMM:   3    -0.652707483293E+03   -0.64079E-02   -0.42030E-01 11388   0.270E+00    0.220E+00
RMM:   4    -0.652703745623E+03    0.37377E-02   -0.14108E-01 13612   0.907E-01    0.141E+00
RMM:   5    -0.652692690486E+03    0.11055E-01   -0.27673E-02 13410   0.434E-01    0.770E-01
RMM:   6    -0.652690437598E+03    0.22529E-02   -0.10675E-02 13808   0.231E-01    0.531E-01
RMM:   7    -0.652691595121E+03   -0.11575E-02   -0.73993E-03 13330   0.200E-01    0.731E-01
RMM:   8    -0.652688022964E+03    0.35722E-02   -0.80409E-03 13197   0.212E-01    0.296E-01
RMM:   9    -0.652688560307E+03   -0.53734E-03   -0.30129E-03 12838   0.134E-01    0.432E-01
RMM:  10    -0.652687763539E+03    0.79677E-03   -0.14899E-03 12383   0.101E-01    0.165E-01
RMM:  11    -0.652687644130E+03    0.11941E-03   -0.85718E-04 12504   0.494E-02    0.792E-02
RMM:  12    -0.652687665577E+03   -0.21447E-04   -0.52208E-04 11522   0.450E-02    0.102E-01
RMM:  13    -0.652687633586E+03    0.31991E-04   -0.25016E-04  9316   0.345E-02    0.546E-02
RMM:  14    -0.652687669268E+03   -0.35682E-04   -0.18696E-04  9509   0.290E-02    0.824E-02
RMM:  15    -0.652687639078E+03    0.30190E-04   -0.94987E-05  7394   0.240E-02    0.281E-02
RMM:  16    -0.652687643746E+03   -0.46686E-05   -0.78445E-05  7093   0.205E-02
  19 F= -.65268764E+03 E0= -.65259651E+03  d E =-.418789E-01
       N       E                     dE             d eps       ncg     rms          rms(c)
DAV:   1    -0.652358941235E+03    0.32870E+00   -0.93265E+00 10320   0.202E+01    0.947E-01
RMM:   2    -0.652688245849E+03   -0.32930E+00   -0.33364E+00 14798   0.435E+00    0.144E+00
RMM:   3    -0.652709979529E+03   -0.21734E-01   -0.27478E-01 11410   0.173E+00    0.164E+00
RMM:   4    -0.652704767710E+03    0.52118E-02   -0.57916E-02 13302   0.604E-01    0.939E-01
RMM:   5    -0.652700012064E+03    0.47556E-02   -0.12971E-02 13390   0.308E-01    0.481E-01
RMM:   6    -0.652699219949E+03    0.79211E-03   -0.49342E-03 13814   0.145E-01    0.348E-01
RMM:   7    -0.652699881094E+03   -0.66114E-03   -0.31386E-03 12916   0.139E-01    0.519E-01
RMM:   8    -0.652698216445E+03    0.16646E-02   -0.32563E-03 13294   0.131E-01    0.182E-01
RMM:   9    -0.652698466077E+03   -0.24963E-03   -0.14729E-03 12792   0.923E-02    0.275E-01
RMM:  10    -0.652698143287E+03    0.32279E-03   -0.67749E-04 11320   0.744E-02    0.137E-01
RMM:  11    -0.652698063560E+03    0.79727E-04   -0.39824E-04 10460   0.383E-02    0.610E-02
RMM:  12    -0.652698078893E+03   -0.15332E-04   -0.23867E-04  8949   0.312E-02    0.732E-02
RMM:  13    -0.652698051514E+03    0.27378E-04   -0.13503E-04  7920   0.239E-02    0.228E-02
RMM:  14    -0.652698071179E+03   -0.19665E-04   -0.93080E-05  7641   0.221E-02    0.572E-02
RMM:  15    -0.652698058784E+03    0.12395E-04   -0.51295E-05  6823   0.197E-02    0.202E-02
RMM:  16    -0.652698061274E+03   -0.24894E-05   -0.44694E-05  6689   0.156E-02
  20 F= -.65269806E+03 E0= -.65260790E+03  d E =-.522965E-01
       N       E                     dE             d eps       ncg     rms          rms(c)
DAV:   1    -0.651996445574E+03    0.70161E+00   -0.23970E+01 12168   0.313E+01    0.230E+00
RMM:   2    -0.653025419320E+03   -0.10290E+01   -0.82747E+00 14451   0.735E+00    0.599E+00
RMM:   3    -0.652780561757E+03    0.24486E+00   -0.93400E-01 11651   0.298E+00    0.305E+00
RMM:   4    -0.652749661298E+03    0.30900E-01   -0.20894E-01 13304   0.114E+00    0.158E+00
RMM:   5    -0.652745666726E+03    0.39946E-02   -0.50770E-02 12794   0.620E-01    0.159E+00
RMM:   6    -0.652730984998E+03    0.14682E-01   -0.18467E-02 12492   0.405E-01    0.720E-01
RMM:   7    -0.652732272380E+03   -0.12874E-02   -0.12767E-02 13100   0.263E-01    0.834E-01
RMM:   8    -0.652730736075E+03    0.15363E-02   -0.11732E-02 12466   0.310E-01    0.871E-01
RMM:   9    -0.652727015631E+03    0.37204E-02   -0.44113E-03 12129   0.205E-01    0.250E-01
RMM:  10    -0.652727287281E+03   -0.27165E-03   -0.28585E-03 14496   0.108E-01    0.271E-01
RMM:  11    -0.652726924662E+03    0.36262E-03   -0.11400E-03 13547   0.785E-02    0.105E-01
RMM:  12    -0.652727023111E+03   -0.98449E-04   -0.68771E-04 12781   0.526E-02    0.130E-01
RMM:  13    -0.652726988500E+03    0.34611E-04   -0.35807E-04 12042   0.383E-02    0.549E-02
RMM:  14    -0.652727036068E+03   -0.47568E-04   -0.23553E-04 11333   0.306E-02    0.821E-02
RMM:  15    -0.652727051942E+03   -0.15874E-04   -0.14176E-04 10539   0.292E-02    0.639E-02
RMM:  16    -0.652727050855E+03    0.10875E-05   -0.10951E-04  9802   0.245E-02    0.320E-02
RMM:  17    -0.652727068640E+03   -0.17785E-04   -0.77301E-05  9180   0.208E-02    0.358E-02
RMM:  18    -0.652727066564E+03    0.20753E-05   -0.44527E-05  7706   0.202E-02
  21 F= -.65272707E+03 E0= -.65263900E+03  d E =-.290053E-01
       N       E                     dE             d eps       ncg     rms          rms(c)
DAV:   1    -0.652712876093E+03    0.14193E-01   -0.46856E-01 11760   0.441E+00    0.324E-01
RMM:   2    -0.652732653940E+03   -0.19778E-01   -0.16500E-01 14417   0.999E-01    0.761E-01
RMM:   3    -0.652728407102E+03    0.42468E-02   -0.16558E-02 11599   0.409E-01    0.400E-01
RMM:   4    -0.652727925382E+03    0.48172E-03   -0.39134E-03 12922   0.155E-01    0.220E-01
RMM:   5    -0.652727840790E+03    0.84592E-04   -0.97996E-04 11904   0.883E-02    0.218E-01
RMM:   6    -0.652727572736E+03    0.26805E-03   -0.35388E-04 10384   0.581E-02    0.956E-02
RMM:   7    -0.652727613802E+03   -0.41066E-04   -0.24768E-04 10033   0.402E-02    0.119E-01
RMM:   8    -0.652727542874E+03    0.70928E-04   -0.24412E-04 11824   0.412E-02    0.760E-02
RMM:   9    -0.652727522238E+03    0.20635E-04   -0.69183E-05  7251   0.290E-02    0.441E-02
RMM:  10    -0.652727525924E+03   -0.36852E-05   -0.46622E-05  6938   0.217E-02
  22 F= -.65272753E+03 E0= -.65263976E+03  d E =-.294646E-01
       N       E                     dE             d eps       ncg     rms          rms(c)
DAV:   1    -0.652467513921E+03    0.26001E+00   -0.85494E+00 10416   0.191E+01    0.131E+00
RMM:   2    -0.652813718924E+03   -0.34621E+00   -0.30065E+00 14422   0.439E+00    0.305E+00
RMM:   3    -0.652766394499E+03    0.47324E-01   -0.31478E-01 11801   0.163E+00    0.196E+00
RMM:   4    -0.652754221035E+03    0.12173E-01   -0.66801E-02 12993   0.692E-01    0.105E+00
RMM:   5    -0.652752156639E+03    0.20644E-02   -0.15283E-02 12108   0.399E-01    0.982E-01
RMM:   6    -0.652746627302E+03    0.55293E-02   -0.71063E-03 12753   0.212E-01    0.363E-01
RMM:   7    -0.652747650026E+03   -0.10227E-02   -0.46118E-03 13030   0.158E-01    0.539E-01
RMM:   8    -0.652746475650E+03    0.11744E-02   -0.32271E-03 12611   0.156E-01    0.436E-01
RMM:   9    -0.652745645376E+03    0.83027E-03   -0.16205E-03 12309   0.112E-01    0.196E-01
RMM:  10    -0.652745514484E+03    0.13089E-03   -0.10509E-03 13681   0.654E-02    0.104E-01
RMM:  11    -0.652745513799E+03    0.68511E-06   -0.42928E-04 11740   0.473E-02    0.874E-02
RMM:  12    -0.652745528541E+03   -0.14742E-04   -0.24554E-04 10737   0.328E-02    0.790E-02
RMM:  13    -0.652745504636E+03    0.23905E-04   -0.14843E-04  9248   0.245E-02    0.280E-02
RMM:  14    -0.652745518221E+03   -0.13584E-04   -0.90847E-05  7873   0.205E-02    0.423E-02
RMM:  15    -0.652745514563E+03    0.36578E-05   -0.51144E-05  7128   0.205E-02
  23 F= -.65274551E+03 E0= -.65265842E+03  d E =-.179886E-01
       N       E                     dE             d eps       ncg     rms          rms(c)
DAV:   1    -0.652563282939E+03    0.18224E+00   -0.57502E+00 10536   0.157E+01    0.108E+00
RMM:   2    -0.652798473533E+03   -0.23519E+00   -0.20343E+00 14398   0.361E+00    0.253E+00
RMM:   3    -0.652765359301E+03    0.33114E-01   -0.21358E-01 11794   0.134E+00    0.161E+00
RMM:   4    -0.652757024576E+03    0.83347E-02   -0.44992E-02 12944   0.563E-01    0.856E-01
RMM:   5    -0.652755628949E+03    0.13956E-02   -0.10300E-02 12029   0.327E-01    0.803E-01
RMM:   6    -0.652751947832E+03    0.36811E-02   -0.48219E-03 12555   0.176E-01    0.298E-01
RMM:   7    -0.652752584583E+03   -0.63675E-03   -0.31125E-03 12846   0.127E-01    0.426E-01
RMM:   8    -0.652751782347E+03    0.80224E-03   -0.22340E-03 12914   0.127E-01    0.336E-01
RMM:   9    -0.652751321828E+03    0.46052E-03   -0.10481E-03 12069   0.932E-02    0.170E-01
RMM:  10    -0.652751218471E+03    0.10336E-03   -0.71895E-04 13406   0.551E-02    0.773E-02
RMM:  11    -0.652751216268E+03    0.22039E-05   -0.33017E-04 11295   0.378E-02    0.528E-02
RMM:  12    -0.652751231930E+03   -0.15663E-04   -0.14574E-04  9486   0.269E-02    0.690E-02
RMM:  13    -0.652751218108E+03    0.13823E-04   -0.98416E-05  7790   0.252E-02    0.260E-02
RMM:  14    -0.652751227036E+03   -0.89283E-05   -0.68674E-05  7462   0.173E-02
  24 F= -.65275123E+03 E0= -.65266472E+03  d E =-.237011E-01
       N       E                     dE             d eps       ncg     rms          rms(c)
DAV:   1    -0.652725899884E+03    0.25318E-01   -0.14452E+00 10200   0.718E+00    0.407E-01
RMM:   2    -0.652764194404E+03   -0.38295E-01   -0.37447E-01 14698   0.166E+00    0.804E-01
RMM:   3    -0.652763130664E+03    0.10637E-02   -0.27929E-02 11564   0.657E-01    0.661E-01
RMM:   4    -0.652762114911E+03    0.10158E-02   -0.79560E-03 12921   0.278E-01    0.376E-01
RMM:   5    -0.652761293345E+03    0.82157E-03   -0.23341E-03 12669   0.149E-01    0.250E-01
RMM:   6    -0.652761028137E+03    0.26521E-03   -0.10748E-03 12451   0.760E-02    0.172E-01
RMM:   7    -0.652761307950E+03   -0.27981E-03   -0.93039E-04 11877   0.785E-02    0.277E-01
RMM:   8    -0.652760863110E+03    0.44484E-03   -0.60606E-04 12132   0.689E-02    0.120E-01
RMM:   9    -0.652760800761E+03    0.62349E-04   -0.26447E-04 10911   0.406E-02    0.635E-02
RMM:  10    -0.652760812624E+03   -0.11864E-04   -0.13484E-04  8363   0.283E-02    0.715E-02
RMM:  11    -0.652760788309E+03    0.24315E-04   -0.67960E-05  6994   0.229E-02    0.292E-02
RMM:  12    -0.652760792074E+03   -0.37651E-05   -0.47903E-05  6737   0.177E-02
  25 F= -.65276079E+03 E0= -.65267455E+03  d E =-.956504E-02
       N       E                     dE             d eps       ncg     rms          rms(c)
DAV:   1    -0.652701974893E+03    0.58813E-01   -0.26844E+00 10104   0.977E+00    0.556E-01
RMM:   2    -0.652773131721E+03   -0.71157E-01   -0.69418E-01 14699   0.225E+00    0.112E+00
RMM:   3    -0.652771062177E+03    0.20695E-02   -0.52830E-02 11556   0.907E-01    0.894E-01
RMM:   4    -0.652769275646E+03    0.17865E-02   -0.15433E-02 13042   0.384E-01    0.509E-01
RMM:   5    -0.652767801314E+03    0.14743E-02   -0.45773E-03 13169   0.201E-01    0.350E-01
RMM:   6    -0.652767294290E+03    0.50702E-03   -0.20106E-03 13087   0.105E-01    0.239E-01
RMM:   7    -0.652767811437E+03   -0.51715E-03   -0.16967E-03 12759   0.103E-01    0.380E-01
RMM:   8    -0.652766963862E+03    0.84758E-03   -0.11433E-03 12849   0.899E-02    0.149E-01
RMM:   9    -0.652766873426E+03    0.90435E-04   -0.49369E-04 11949   0.511E-02    0.869E-02
RMM:  10    -0.652766892583E+03   -0.19157E-04   -0.25871E-04 10100   0.377E-02    0.948E-02
RMM:  11    -0.652766851126E+03    0.41457E-04   -0.13213E-04  8318   0.270E-02    0.404E-02
RMM:  12    -0.652766858998E+03   -0.78714E-05   -0.95179E-05  7734   0.218E-02
  26 F= -.65276686E+03 E0= -.65268099E+03  d E =-.156320E-01
       N       E                     dE             d eps       ncg     rms          rms(c)
DAV:   1    -0.652726644011E+03    0.40207E-01   -0.22707E+00 12288   0.940E+00    0.858E-01
RMM:   2    -0.652829395267E+03   -0.10275E+00   -0.70560E-01 13467   0.237E+00    0.234E+00
RMM:   3    -0.652783949025E+03    0.45446E-01   -0.70856E-02 12007   0.924E-01    0.115E+00
RMM:   4    -0.652777932078E+03    0.60169E-02   -0.21045E-02 12861   0.390E-01    0.560E-01
RMM:   5    -0.652778122635E+03   -0.19056E-03   -0.51604E-03 12075   0.234E-01    0.666E-01
RMM:   6    -0.652775605620E+03    0.25170E-02   -0.23582E-03 11769   0.151E-01    0.264E-01
RMM:   7    -0.652775619508E+03   -0.13888E-04   -0.17148E-03 12138   0.983E-02    0.264E-01
RMM:   8    -0.652775380970E+03    0.23854E-03   -0.12593E-03 12821   0.946E-02    0.233E-01
RMM:   9    -0.652775146294E+03    0.23468E-03   -0.43072E-04 11289   0.691E-02    0.119E-01
RMM:  10    -0.652775162621E+03   -0.16328E-04   -0.30090E-04 12083   0.419E-02    0.103E-01
RMM:  11    -0.652775101371E+03    0.61250E-04   -0.12914E-04  9689   0.285E-02    0.304E-02
RMM:  12    -0.652775116133E+03   -0.14762E-04   -0.79980E-05  7835   0.206E-02    0.457E-02
RMM:  13    -0.652775114832E+03    0.13007E-05   -0.36127E-05  6855   0.202E-02
  27 F= -.65277511E+03 E0= -.65268972E+03  d E =-.825583E-02
       N       E                     dE             d eps       ncg     rms          rms(c)
DAV:   1    -0.652717990046E+03    0.57126E-01   -0.28015E+00 12024   0.105E+01    0.954E-01
RMM:   2    -0.652845232936E+03   -0.12724E+00   -0.88008E-01 13445   0.266E+00    0.258E+00
RMM:   3    -0.652790107234E+03    0.55126E-01   -0.90438E-02 12012   0.103E+00    0.129E+00
RMM:   4    -0.652782521926E+03    0.75853E-02   -0.25854E-02 12780   0.435E-01    0.617E-01
RMM:   5    -0.652782775202E+03   -0.25328E-03   -0.62896E-03 12023   0.261E-01    0.735E-01
RMM:   6    -0.652779698184E+03    0.30770E-02   -0.29051E-03 11827   0.166E-01    0.286E-01
RMM:   7    -0.652779760965E+03   -0.62782E-04   -0.21221E-03 12406   0.109E-01    0.297E-01
RMM:   8    -0.652779414359E+03    0.34661E-03   -0.15169E-03 13127   0.104E-01    0.240E-01
RMM:   9    -0.652779176875E+03    0.23748E-03   -0.53837E-04 11726   0.735E-02    0.134E-01
RMM:  10    -0.652779193387E+03   -0.16512E-04   -0.36398E-04 12535   0.470E-02    0.115E-01
RMM:  11    -0.652779122499E+03    0.70888E-04   -0.16017E-04 10723   0.310E-02    0.355E-02
RMM:  12    -0.652779140114E+03   -0.17615E-04   -0.10537E-04  8451   0.215E-02    0.488E-02
RMM:  13    -0.652779140127E+03   -0.13068E-07   -0.46838E-05  7472   0.221E-02
  28 F= -.65277914E+03 E0= -.65269426E+03  d E =-.122811E-01
       N       E                     dE             d eps       ncg     rms          rms(c)
DAV:   1    -0.652752844782E+03    0.26295E-01   -0.11446E+00 10272   0.670E+00    0.392E-01
RMM:   2    -0.652789731885E+03   -0.36887E-01   -0.34792E-01 14573   0.149E+00    0.777E-01
RMM:   3    -0.652786721561E+03    0.30103E-02   -0.26184E-02 11776   0.557E-01    0.604E-01
RMM:   4    -0.652785901318E+03    0.82024E-03   -0.63481E-03 12579   0.240E-01    0.370E-01
RMM:   5    -0.652785406275E+03    0.49504E-03   -0.16849E-03 12496   0.129E-01    0.265E-01
RMM:   6    -0.652785004016E+03    0.40226E-03   -0.78971E-04 12224   0.622E-02    0.124E-01
RMM:   7    -0.652785088529E+03   -0.84513E-04   -0.45257E-04 11216   0.543E-02    0.168E-01
RMM:   8    -0.652784947189E+03    0.14134E-03   -0.42184E-04 11713   0.519E-02    0.120E-01
RMM:   9    -0.652784890647E+03    0.56543E-04   -0.15812E-04  8736   0.422E-02    0.728E-02
RMM:  10    -0.652784875080E+03    0.15567E-04   -0.10711E-04  8495   0.254E-02    0.454E-02
RMM:  11    -0.652784866212E+03    0.88679E-05   -0.47086E-05  6823   0.197E-02
  29 F= -.65278487E+03 E0= -.65270012E+03  d E =-.572608E-02
       N       E                     dE             d eps       ncg     rms          rms(c)
DAV:   1    -0.652480393390E+03    0.30448E+00   -0.10046E+01  9744   0.200E+01    0.121E+00
RMM:   2    -0.652829874773E+03   -0.34948E+00   -0.32992E+00 14519   0.473E+00    0.236E+00
RMM:   3    -0.652814117528E+03    0.15757E-01   -0.33160E-01 11785   0.168E+00    0.190E+00
RMM:   4    -0.652805353900E+03    0.87636E-02   -0.52426E-02 12350   0.730E-01    0.116E+00
RMM:   5    -0.652800074388E+03    0.52795E-02   -0.15293E-02 12545   0.376E-01    0.779E-01
RMM:   6    -0.652796778380E+03    0.32960E-02   -0.71215E-03 13323   0.180E-01    0.381E-01
RMM:   7    -0.652797611748E+03   -0.83337E-03   -0.40073E-03 12645   0.156E-01    0.517E-01
RMM:   8    -0.652796294275E+03    0.13175E-02   -0.35759E-03 13133   0.143E-01    0.356E-01
RMM:   9    -0.652795819051E+03    0.47522E-03   -0.14136E-03 12120   0.107E-01    0.224E-01
RMM:  10    -0.652795650937E+03    0.16811E-03   -0.95716E-04 13362   0.688E-02    0.122E-01
RMM:  11    -0.652795604729E+03    0.46208E-04   -0.43518E-04 12178   0.425E-02    0.671E-02
RMM:  12    -0.652795641820E+03   -0.37091E-04   -0.25319E-04 10289   0.338E-02    0.901E-02
RMM:  13    -0.652795607262E+03    0.34557E-04   -0.12709E-04  8516   0.255E-02    0.271E-02
RMM:  14    -0.652795621959E+03   -0.14697E-04   -0.97680E-05  8038   0.205E-02    0.410E-02
RMM:  15    -0.652795615232E+03    0.67275E-05   -0.47636E-05  7046   0.201E-02
  30 F= -.65279562E+03 E0= -.65271122E+03  d E =-.164751E-01
       N       E                     dE             d eps       ncg     rms          rms(c)
DAV:   1    -0.651655920136E+03    0.11397E+01   -0.41686E+01 10080   0.397E+01    0.239E+00
RMM:   2    -0.652972921803E+03   -0.13170E+01   -0.12428E+01 14544   0.875E+00    0.489E+00
RMM:   3    -0.652857995596E+03    0.11493E+00   -0.85143E-01 11762   0.328E+00    0.384E+00
RMM:   4    -0.652824508688E+03    0.33487E-01   -0.23359E-01 12239   0.148E+00    0.228E+00
RMM:   5    -0.652802824384E+03    0.21684E-01   -0.65889E-02 12694   0.775E-01    0.147E+00
RMM:   6    -0.652790979983E+03    0.11844E-01   -0.28160E-02 13583   0.363E-01    0.748E-01
RMM:   7    -0.652795668659E+03   -0.46887E-02   -0.15592E-02 12552   0.325E-01    0.117E+00
RMM:   8    -0.652788731008E+03    0.69377E-02   -0.13816E-02 13063   0.282E-01    0.619E-01
RMM:   9    -0.652787492894E+03    0.12381E-02   -0.60300E-03 12885   0.204E-01    0.449E-01
RMM:  10    -0.652786884850E+03    0.60804E-03   -0.34981E-03 14074   0.134E-01    0.275E-01
RMM:  11    -0.652786568818E+03    0.31603E-03   -0.16835E-03 13853   0.797E-02    0.122E-01
RMM:  12    -0.652786742396E+03   -0.17358E-03   -0.10048E-03 12937   0.632E-02    0.179E-01
RMM:  13    -0.652786610775E+03    0.13162E-03   -0.55311E-04 12536   0.467E-02    0.551E-02
RMM:  14    -0.652786675823E+03   -0.65048E-04   -0.36867E-04 12084   0.355E-02    0.897E-02
RMM:  15    -0.652786655225E+03    0.20598E-04   -0.18323E-04 10731   0.322E-02    0.511E-02
RMM:  16    -0.652786661813E+03   -0.65878E-05   -0.14399E-04  9705   0.255E-02    0.408E-02
RMM:  17    -0.652786662293E+03   -0.48040E-06   -0.88682E-05  8592   0.225E-02
  31 F= -.65278666E+03 E0= -.65270299E+03  d E =-.752217E-02
       N       E                     dE             d eps       ncg     rms          rms(c)
DAV:   1    -0.652097913465E+03    0.68875E+00   -0.22159E+01  9744   0.298E+01    0.187E+00
RMM:   2    -0.652966688161E+03   -0.86877E+00   -0.75266E+00 14524   0.732E+00    0.503E+00
RMM:   3    -0.652842717370E+03    0.12397E+00   -0.80534E-01 11808   0.274E+00    0.288E+00
RMM:   4    -0.652818807046E+03    0.23910E-01   -0.13780E-01 12361   0.114E+00    0.169E+00
RMM:   5    -0.652809880432E+03    0.89266E-02   -0.41251E-02 12740   0.589E-01    0.123E+00
RMM:   6    -0.652800624525E+03    0.92559E-02   -0.16200E-02 13272   0.281E-01    0.629E-01
RMM:   7    -0.652800762443E+03   -0.13792E-03   -0.77574E-03 12558   0.224E-01    0.646E-01
RMM:   8    -0.652800117364E+03    0.64508E-03   -0.85668E-03 12342   0.259E-01    0.713E-01
RMM:   9    -0.652797483073E+03    0.26343E-02   -0.37550E-03 12111   0.180E-01    0.268E-01
RMM:  10    -0.652797728472E+03   -0.24540E-03   -0.24966E-03 13732   0.113E-01    0.318E-01
RMM:  11    -0.652797246549E+03    0.48192E-03   -0.10037E-03 12268   0.784E-02    0.104E-01
RMM:  12    -0.652797323174E+03   -0.76625E-04   -0.68470E-04 12730   0.470E-02    0.113E-01
RMM:  13    -0.652797287067E+03    0.36107E-04   -0.31918E-04 11489   0.339E-02    0.462E-02
RMM:  14    -0.652797318475E+03   -0.31408E-04   -0.14767E-04  9475   0.263E-02    0.704E-02
RMM:  15    -0.652797321856E+03   -0.33812E-05   -0.10520E-04  9034   0.269E-02    0.337E-02
RMM:  16    -0.652797329337E+03   -0.74806E-05   -0.78991E-05  8431   0.199E-02
  32 F= -.65279733E+03 E0= -.65271311E+03  d E =-.181892E-01
       N       E                     dE             d eps       ncg     rms          rms(c)
DAV:   1    -0.652739990143E+03    0.57332E-01   -0.22845E+00 10560   0.931E+00    0.368E-01
RMM:   2    -0.652803105405E+03   -0.63115E-01   -0.64576E-01 13924   0.196E+00    0.418E-01
RMM:   3    -0.652805745355E+03   -0.26400E-02   -0.44806E-02 12367   0.599E-01    0.733E-01
RMM:   4    -0.652804255486E+03    0.14899E-02   -0.87278E-03 11477   0.289E-01    0.381E-01
RMM:   5    -0.652803466671E+03    0.78881E-03   -0.22458E-03 12635   0.118E-01    0.128E-01
RMM:   6    -0.652803446806E+03    0.19865E-04   -0.65362E-04 11876   0.538E-02    0.120E-01
RMM:   7    -0.652803433176E+03    0.13630E-04   -0.32030E-04 10568   0.470E-02    0.131E-01
RMM:   8    -0.652803332395E+03    0.10078E-03   -0.33396E-04 11216   0.438E-02    0.713E-02
RMM:   9    -0.652803353520E+03   -0.21125E-04   -0.19013E-04  9960   0.368E-02    0.886E-02
RMM:  10    -0.652803320865E+03    0.32655E-04   -0.63519E-05  6990   0.295E-02    0.533E-02
RMM:  11    -0.652803311233E+03    0.96318E-05   -0.38214E-05  6670   0.215E-02
  33 F= -.65280331E+03 E0= -.65271943E+03  d E =-.598190E-02
       N       E                     dE             d eps       ncg     rms          rms(c)
DAV:   1    -0.652223394406E+03    0.57993E+00   -0.20439E+01 10176   0.278E+01    0.112E+00
RMM:   2    -0.652810197131E+03   -0.58680E+00   -0.60281E+00 13982   0.606E+00    0.118E+00
RMM:   3    -0.652833913234E+03   -0.23716E-01   -0.42213E-01 12193   0.186E+00    0.211E+00
RMM:   4    -0.652820903337E+03    0.13010E-01   -0.88979E-02 12069   0.865E-01    0.102E+00
RMM:   5    -0.652816147062E+03    0.47563E-02   -0.21188E-02 13480   0.368E-01    0.433E-01
RMM:   6    -0.652815819741E+03    0.32732E-03   -0.70257E-03 13893   0.151E-01    0.360E-01
RMM:   7    -0.652815837644E+03   -0.17903E-04   -0.31290E-03 12587   0.139E-01    0.435E-01
RMM:   8    -0.652814843221E+03    0.99442E-03   -0.30941E-03 13074   0.116E-01    0.242E-01
RMM:   9    -0.652815070315E+03   -0.22709E-03   -0.19362E-03 12484   0.104E-01    0.296E-01
RMM:  10    -0.652814659422E+03    0.41089E-03   -0.91538E-04 11650   0.831E-02    0.119E-01
RMM:  11    -0.652814628070E+03    0.31352E-04   -0.47099E-04 10825   0.425E-02    0.908E-02
RMM:  12    -0.652814637164E+03   -0.90945E-05   -0.27078E-04  8909   0.378E-02    0.104E-01
RMM:  13    -0.652814580068E+03    0.57096E-04   -0.14044E-04  8420   0.271E-02    0.269E-02
RMM:  14    -0.652814602132E+03   -0.22064E-04   -0.11707E-04  8161   0.227E-02    0.524E-02
RMM:  15    -0.652814588922E+03    0.13210E-04   -0.45807E-05  6700   0.187E-02    0.177E-02
RMM:  16    -0.652814591867E+03   -0.29450E-05   -0.37674E-05  6633   0.157E-02
  34 F= -.65281459E+03 E0= -.65273169E+03  d E =-.172625E-01
       N       E                     dE             d eps       ncg     rms          rms(c)
DAV:   1    -0.652715351777E+03    0.99237E-01   -0.29928E+00 10200   0.109E+01    0.461E-01
RMM:   2    -0.652811173245E+03   -0.95821E-01   -0.97760E-01 13892   0.249E+00    0.465E-01
RMM:   3    -0.652819400450E+03   -0.82272E-02   -0.10278E-01 12361   0.711E-01    0.859E-01
RMM:   4    -0.652816874045E+03    0.25264E-02   -0.96921E-03 11585   0.328E-01    0.465E-01
RMM:   5    -0.652815798017E+03    0.10760E-02   -0.32152E-03 13126   0.134E-01    0.166E-01
RMM:   6    -0.652815780001E+03    0.18016E-04   -0.99038E-04 12409   0.596E-02    0.154E-01
RMM:   7    -0.652815742684E+03    0.37317E-04   -0.43177E-04 11062   0.511E-02    0.150E-01
RMM:   8    -0.652815622278E+03    0.12041E-03   -0.43991E-04 11666   0.497E-02    0.938E-02
RMM:   9    -0.652815665602E+03   -0.43324E-04   -0.35040E-04 10970   0.471E-02    0.117E-01
RMM:  10    -0.652815597888E+03    0.67715E-04   -0.12769E-04  8449   0.391E-02    0.619E-02
RMM:  11    -0.652815588982E+03    0.89058E-05   -0.74235E-05  7428   0.233E-02
  35 F= -.65281559E+03 E0= -.65273305E+03  d E =-.182596E-01
       N       E                     dE             d eps       ncg     rms          rms(c)
DAV:   1    -0.652793512201E+03    0.22086E-01   -0.10864E+00  9840   0.600E+00    0.334E-01
RMM:   2    -0.652824070137E+03   -0.30558E-01   -0.30030E-01 14652   0.150E+00    0.609E-01
RMM:   3    -0.652824334779E+03   -0.26464E-03   -0.27013E-02 11525   0.555E-01    0.558E-01
RMM:   4    -0.652823678224E+03    0.65656E-03   -0.51927E-03 12632   0.230E-01    0.330E-01
RMM:   5    -0.652823144749E+03    0.53347E-03   -0.14982E-03 12290   0.119E-01    0.205E-01
RMM:   6    -0.652822914659E+03    0.23009E-03   -0.65333E-04 12194   0.575E-02    0.101E-01
RMM:   7    -0.652823118723E+03   -0.20406E-03   -0.48737E-04 11048   0.638E-02    0.220E-01
RMM:   8    -0.652822871062E+03    0.24766E-03   -0.36829E-04 11374   0.540E-02    0.891E-02
RMM:   9    -0.652822850727E+03    0.20335E-04   -0.16960E-04  9420   0.345E-02    0.585E-02
RMM:  10    -0.652822846236E+03    0.44914E-05   -0.77324E-05  7208   0.227E-02
  36 F= -.65282285E+03 E0= -.65274039E+03  d E =-.725725E-02
       N       E                     dE             d eps       ncg     rms          rms(c)
DAV:   1    -0.652704834052E+03    0.11802E+00   -0.46960E+00  9744   0.125E+01    0.687E-01
RMM:   2    -0.652834766970E+03   -0.12993E+00   -0.12953E+00 14641   0.312E+00    0.110E+00
RMM:   3    -0.652837466390E+03   -0.26994E-02   -0.11563E-01 11562   0.112E+00    0.109E+00
RMM:   4    -0.652835287885E+03    0.21785E-02   -0.21578E-02 12779   0.470E-01    0.711E-01
RMM:   5    -0.652832884430E+03    0.24035E-02   -0.65077E-03 13062   0.244E-01    0.424E-01
RMM:   6    -0.652831919718E+03    0.96471E-03   -0.27068E-03 13490   0.110E-01    0.208E-01
RMM:   7    -0.652832895013E+03   -0.97530E-03   -0.20690E-03 11940   0.131E-01    0.492E-01
RMM:   8    -0.652831642073E+03    0.12529E-02   -0.15033E-03 12256   0.113E-01    0.152E-01
RMM:   9    -0.652831632477E+03    0.95959E-05   -0.84427E-04 12775   0.593E-02    0.125E-01
RMM:  10    -0.652831586627E+03    0.45850E-04   -0.37133E-04 10930   0.446E-02    0.746E-02
RMM:  11    -0.652831573602E+03    0.13025E-04   -0.19553E-04  8804   0.268E-02    0.382E-02
RMM:  12    -0.652831588684E+03   -0.15082E-04   -0.10361E-04  7543   0.242E-02    0.529E-02
RMM:  13    -0.652831579293E+03    0.93912E-05   -0.67753E-05  7229   0.198E-02
  37 F= -.65283158E+03 E0= -.65274927E+03  d E =-.159903E-01
       N       E                     dE             d eps       ncg     rms          rms(c)
DAV:   1    -0.652807611180E+03    0.23978E-01   -0.92639E-01  9888   0.554E+00    0.308E-01
RMM:   2    -0.652833794657E+03   -0.26183E-01   -0.25601E-01 14640   0.138E+00    0.564E-01
RMM:   3    -0.652833771332E+03    0.23324E-04   -0.23063E-02 11539   0.507E-01    0.480E-01
RMM:   4    -0.652833411526E+03    0.35981E-03   -0.45151E-03 12848   0.210E-01    0.321E-01
RMM:   5    -0.652832917172E+03    0.49435E-03   -0.13379E-03 12550   0.108E-01    0.187E-01
RMM:   6    -0.652832721050E+03    0.19612E-03   -0.55966E-04 12028   0.530E-02    0.936E-02
RMM:   7    -0.652832900675E+03   -0.17962E-03   -0.40536E-04 10608   0.602E-02    0.205E-01
RMM:   8    -0.652832683215E+03    0.21746E-03   -0.34804E-04 11518   0.520E-02    0.786E-02
RMM:   9    -0.652832671984E+03    0.11231E-04   -0.15695E-04  8912   0.339E-02    0.558E-02
RMM:  10    -0.652832668460E+03    0.35243E-05   -0.73917E-05  7250   0.225E-02
  38 F= -.65283267E+03 E0= -.65275042E+03  d E =-.170795E-01
       N       E                     dE             d eps       ncg     rms          rms(c)
DAV:   1    -0.652796115342E+03    0.36557E-01   -0.22872E+00 11616   0.874E+00    0.916E-01
RMM:   2    -0.652901539470E+03   -0.10542E+00   -0.68055E-01 13353   0.237E+00    0.247E+00
RMM:   3    -0.652848712923E+03    0.52827E-01   -0.76930E-02 12002   0.938E-01    0.115E+00
RMM:   4    -0.652843056954E+03    0.56560E-02   -0.20794E-02 12896   0.398E-01    0.639E-01
RMM:   5    -0.652842799252E+03    0.25770E-03   -0.61604E-03 12262   0.237E-01    0.650E-01
RMM:   6    -0.652840322030E+03    0.24772E-02   -0.26700E-03 11942   0.154E-01    0.276E-01
RMM:   7    -0.652840351533E+03   -0.29503E-04   -0.16977E-03 12019   0.107E-01    0.282E-01
RMM:   8    -0.652840058958E+03    0.29258E-03   -0.12343E-03 13139   0.882E-02    0.233E-01
RMM:   9    -0.652839830142E+03    0.22882E-03   -0.46446E-04 11259   0.729E-02    0.131E-01
RMM:  10    -0.652839829431E+03    0.71126E-06   -0.31571E-04 11608   0.466E-02    0.116E-01
RMM:  11    -0.652839749062E+03    0.80369E-04   -0.15542E-04 10138   0.301E-02    0.340E-02
RMM:  12    -0.652839759664E+03   -0.10602E-04   -0.91894E-05  7989   0.207E-02    0.456E-02
RMM:  13    -0.652839752600E+03    0.70637E-05   -0.43169E-05  7146   0.208E-02
  39 F= -.65283975E+03 E0= -.65275725E+03  d E =-.708414E-02
       N       E                     dE             d eps       ncg     rms          rms(c)
DAV:   1    -0.652827039938E+03    0.12720E-01   -0.75551E-01 12240   0.502E+00    0.527E-01
RMM:   2    -0.652861950570E+03   -0.34911E-01   -0.22201E-01 13255   0.136E+00    0.143E+00
RMM:   3    -0.652844121780E+03    0.17829E-01   -0.25135E-02 11981   0.541E-01    0.661E-01
RMM:   4    -0.652842206906E+03    0.19149E-02   -0.68562E-03 12778   0.227E-01    0.361E-01
RMM:   5    -0.652842139317E+03    0.67590E-04   -0.19708E-03 11873   0.135E-01    0.373E-01
RMM:   6    -0.652841338669E+03    0.80065E-03   -0.88130E-04 11393   0.905E-02    0.160E-01
RMM:   7    -0.652841336368E+03    0.23014E-05   -0.56694E-04 10941   0.630E-02    0.156E-01
RMM:   8    -0.652841242260E+03    0.94108E-04   -0.41806E-04 12656   0.516E-02    0.124E-01
RMM:   9    -0.652841181181E+03    0.61079E-04   -0.14966E-04  9021   0.450E-02    0.752E-02
RMM:  10    -0.652841178873E+03    0.23082E-05   -0.10862E-04  9147   0.277E-02    0.639E-02
RMM:  11    -0.652841155115E+03    0.23757E-04   -0.50812E-05  7314   0.208E-02    0.212E-02
RMM:  12    -0.652841157989E+03   -0.28735E-05   -0.31337E-05  6573   0.166E-02
  40 F= -.65284116E+03 E0= -.65275854E+03  d E =-.848953E-02
       N       E                     dE             d eps       ncg     rms          rms(c)
DAV:   1    -0.652801947553E+03    0.39208E-01   -0.22909E+00 11448   0.868E+00    0.777E-01
RMM:   2    -0.652884083162E+03   -0.82136E-01   -0.63394E-01 13759   0.216E+00    0.187E+00
RMM:   3    -0.652853761550E+03    0.30322E-01   -0.55936E-02 11900   0.868E-01    0.101E+00
RMM:   4    -0.652849395689E+03    0.43659E-02   -0.17102E-02 13330   0.352E-01    0.505E-01
RMM:   5    -0.652849214767E+03    0.18092E-03   -0.44614E-03 12063   0.217E-01    0.567E-01
RMM:   6    -0.652847312971E+03    0.19018E-02   -0.19868E-03 11844   0.137E-01    0.220E-01
RMM:   7    -0.652847723622E+03   -0.41065E-03   -0.16844E-03 11852   0.103E-01    0.339E-01
RMM:   8    -0.652847154960E+03    0.56866E-03   -0.11015E-03 12073   0.100E-01    0.184E-01
RMM:   9    -0.652847008400E+03    0.14656E-03   -0.55082E-04 11965   0.603E-02    0.101E-01
RMM:  10    -0.652847003046E+03    0.53541E-05   -0.24513E-04 10694   0.387E-02    0.881E-02
RMM:  11    -0.652846967197E+03    0.35849E-04   -0.11212E-04  8336   0.262E-02    0.358E-02
RMM:  12    -0.652846980890E+03   -0.13693E-04   -0.74238E-05  7085   0.226E-02    0.474E-02
RMM:  13    -0.652846976975E+03    0.39152E-05   -0.39375E-05  6711   0.180E-02
  41 F= -.65284698E+03 E0= -.65276449E+03  d E =-.581899E-02
       N       E                     dE             d eps       ncg     rms          rms(c)
DAV:   1    -0.652826097406E+03    0.20883E-01   -0.11444E+00 11808   0.611E+00    0.553E-01
RMM:   2    -0.652867676725E+03   -0.41579E-01   -0.31609E-01 13674   0.152E+00    0.134E+00
RMM:   3    -0.652851772533E+03    0.15904E-01   -0.27695E-02 11889   0.614E-01    0.711E-01
RMM:   4    -0.652849602661E+03    0.21699E-02   -0.85831E-03 13050   0.249E-01    0.358E-01
RMM:   5    -0.652849509131E+03    0.93530E-04   -0.22412E-03 11851   0.150E-01    0.396E-01
RMM:   6    -0.652848579741E+03    0.92939E-03   -0.10063E-03 11405   0.972E-02    0.156E-01
RMM:   7    -0.652848764577E+03   -0.18484E-03   -0.80613E-04 11235   0.738E-02    0.231E-01
RMM:   8    -0.652848506794E+03    0.25778E-03   -0.55257E-04 11863   0.704E-02    0.125E-01
RMM:   9    -0.652848442490E+03    0.64304E-04   -0.26971E-04 10829   0.453E-02    0.677E-02
RMM:  10    -0.652848438886E+03    0.36043E-05   -0.12308E-04  8966   0.269E-02    0.511E-02
RMM:  11    -0.652848428430E+03    0.10456E-04   -0.60851E-05  7399   0.213E-02    0.194E-02
RMM:  12    -0.652848437994E+03   -0.95646E-05   -0.36292E-05  6637   0.161E-02
  42 F= -.65284844E+03 E0= -.65276610E+03  d E =-.728001E-02
       N       E                     dE             d eps       ncg     rms          rms(c)
DAV:   1    -0.652784700437E+03    0.63728E-01   -0.26153E+00 10752   0.981E+00    0.465E-01
RMM:   2    -0.652858126619E+03   -0.73426E-01   -0.71314E-01 14622   0.211E+00    0.938E-01
RMM:   3    -0.652855800767E+03    0.23259E-02   -0.44062E-02 11575   0.827E-01    0.610E-01
RMM:   4    -0.652856398721E+03   -0.59795E-03   -0.12250E-02 13303   0.308E-01    0.575E-01
RMM:   5    -0.652854477606E+03    0.19211E-02   -0.30367E-03 12536   0.154E-01    0.199E-01
RMM:   6    -0.652854333163E+03    0.14444E-03   -0.12389E-03 12691   0.709E-02    0.152E-01
RMM:   7    -0.652854488677E+03   -0.15551E-03   -0.67712E-04 11399   0.689E-02    0.239E-01
RMM:   8    -0.652854173636E+03    0.31504E-03   -0.78170E-04 12249   0.688E-02    0.105E-01
RMM:   9    -0.652854159478E+03    0.14158E-04   -0.27114E-04 10287   0.433E-02    0.901E-02
RMM:  10    -0.652854144713E+03    0.14764E-04   -0.14156E-04  8459   0.316E-02    0.616E-02
RMM:  11    -0.652854127405E+03    0.17308E-04   -0.64994E-05  7203   0.218E-02    0.259E-02
RMM:  12    -0.652854131801E+03   -0.43959E-05   -0.44543E-05  6817   0.190E-02
  43 F= -.65285413E+03 E0= -.65277181E+03  d E =-.569381E-02
       N       E                     dE             d eps       ncg     rms          rms(c)
DAV:   1    -0.652778653696E+03    0.75474E-01   -0.29871E+00 10752   0.105E+01    0.499E-01
RMM:   2    -0.652862174727E+03   -0.83521E-01   -0.81347E-01 14625   0.225E+00    0.980E-01
RMM:   3    -0.652859780475E+03    0.23943E-02   -0.50329E-02 11546   0.884E-01    0.650E-01
RMM:   4    -0.652860465176E+03   -0.68470E-03   -0.14127E-02 13253   0.331E-01    0.615E-01
RMM:   5    -0.652858284942E+03    0.21802E-02   -0.35751E-03 12557   0.166E-01    0.210E-01
RMM:   6    -0.652858104602E+03    0.18034E-03   -0.14375E-03 12817   0.749E-02    0.149E-01
RMM:   7    -0.652858341375E+03   -0.23677E-03   -0.82854E-04 11672   0.754E-02    0.270E-01
RMM:   8    -0.652857931555E+03    0.40982E-03   -0.82783E-04 12169   0.742E-02    0.104E-01
RMM:   9    -0.652857934071E+03   -0.25165E-05   -0.32843E-04 10789   0.441E-02    0.101E-01
RMM:  10    -0.652857915233E+03    0.18838E-04   -0.17012E-04  8669   0.336E-02    0.680E-02
RMM:  11    -0.652857894526E+03    0.20708E-04   -0.76645E-05  7398   0.227E-02    0.261E-02
RMM:  12    -0.652857899650E+03   -0.51249E-05   -0.55098E-05  7058   0.195E-02
  44 F= -.65285790E+03 E0= -.65277564E+03  d E =-.946166E-02
       N       E                     dE             d eps       ncg     rms          rms(c)
DAV:   1    -0.652508049689E+03    0.34984E+00   -0.11625E+01 10080   0.210E+01    0.102E+00
RMM:   2    -0.652861177365E+03   -0.35313E+00   -0.34847E+00 14597   0.486E+00    0.180E+00
RMM:   3    -0.652867823942E+03   -0.66466E-02   -0.29214E-01 11564   0.173E+00    0.144E+00
RMM:   4    -0.652867530495E+03    0.29345E-03   -0.49538E-02 13082   0.683E-01    0.119E+00
RMM:   5    -0.652859206594E+03    0.83239E-02   -0.14455E-02 13295   0.334E-01    0.412E-01
RMM:   6    -0.652858610327E+03    0.59627E-03   -0.55381E-03 13852   0.146E-01    0.309E-01
RMM:   7    -0.652859515432E+03   -0.90511E-03   -0.33368E-03 12517   0.153E-01    0.541E-01
RMM:   8    -0.652857801599E+03    0.17138E-02   -0.30079E-03 12716   0.145E-01    0.191E-01
RMM:   9    -0.652857916566E+03   -0.11497E-03   -0.13898E-03 12707   0.792E-02    0.224E-01
RMM:  10    -0.652857761746E+03    0.15482E-03   -0.68798E-04 11527   0.660E-02    0.129E-01
RMM:  11    -0.652857697681E+03    0.64064E-04   -0.33339E-04 10348   0.376E-02    0.596E-02
RMM:  12    -0.652857710054E+03   -0.12372E-04   -0.22352E-04  9091   0.303E-02    0.664E-02
RMM:  13    -0.652857694712E+03    0.15342E-04   -0.11048E-04  7781   0.233E-02    0.329E-02
RMM:  14    -0.652857710237E+03   -0.15525E-04   -0.74104E-05  7531   0.227E-02    0.538E-02
RMM:  15    -0.652857696576E+03    0.13661E-04   -0.45444E-05  6956   0.196E-02    0.147E-02
RMM:  16    -0.652857700342E+03   -0.37662E-05   -0.40220E-05  6831   0.152E-02
  45 F= -.65285770E+03 E0= -.65277564E+03  d E =-.926235E-02
       N       E                     dE             d eps       ncg     rms          rms(c)
DAV:   1    -0.652756597317E+03    0.10110E+00   -0.38378E+00 10680   0.119E+01    0.573E-01
RMM:   2    -0.652866976406E+03   -0.11038E+00   -0.10582E+00 14609   0.262E+00    0.122E+00
RMM:   3    -0.652861347439E+03    0.56290E-02   -0.68265E-02 11601   0.997E-01    0.704E-01
RMM:   4    -0.652862830578E+03   -0.14831E-02   -0.18279E-02 13013   0.381E-01    0.745E-01
RMM:   5    -0.652859705213E+03    0.31254E-02   -0.42409E-03 12242   0.195E-01    0.258E-01
RMM:   6    -0.652859449778E+03    0.25543E-03   -0.18450E-03 12714   0.882E-02    0.191E-01
RMM:   7    -0.652859571721E+03   -0.12194E-03   -0.91238E-04 11372   0.798E-02    0.252E-01
RMM:   8    -0.652859246358E+03    0.32536E-03   -0.11321E-03 12310   0.815E-02    0.160E-01
RMM:   9    -0.652859149477E+03    0.96881E-04   -0.36273E-04 10421   0.540E-02    0.956E-02
RMM:  10    -0.652859152706E+03   -0.32288E-05   -0.20794E-04  9545   0.364E-02    0.840E-02
RMM:  11    -0.652859118266E+03    0.34440E-04   -0.83709E-05  7323   0.248E-02    0.308E-02
RMM:  12    -0.652859126917E+03   -0.86507E-05   -0.59570E-05  6926   0.219E-02
  46 F= -.65285913E+03 E0= -.65277690E+03  d E =-.106889E-01
       N       E                     dE             d eps       ncg     rms          rms(c)
DAV:   1    -0.652716257959E+03    0.14286E+00   -0.45272E+00  9960   0.140E+01    0.777E-01
RMM:   2    -0.652874970795E+03   -0.15871E+00   -0.15403E+00 14731   0.312E+00    0.137E+00
RMM:   3    -0.652870749694E+03    0.42211E-02   -0.12330E-01 11558   0.119E+00    0.111E+00
RMM:   4    -0.652868659373E+03    0.20903E-02   -0.25808E-02 12730   0.462E-01    0.757E-01
RMM:   5    -0.652865744351E+03    0.29150E-02   -0.59065E-03 12196   0.255E-01    0.471E-01
RMM:   6    -0.652864531309E+03    0.12130E-02   -0.28007E-03 12718   0.123E-01    0.244E-01
RMM:   7    -0.652865241450E+03   -0.71014E-03   -0.19475E-03 11775   0.125E-01    0.432E-01
RMM:   8    -0.652864103735E+03    0.11377E-02   -0.16170E-03 12354   0.114E-01    0.171E-01
RMM:   9    -0.652864037044E+03    0.66691E-04   -0.73413E-04 12460   0.622E-02    0.136E-01
RMM:  10    -0.652864018102E+03    0.18942E-04   -0.33016E-04 11530   0.469E-02    0.112E-01
RMM:  11    -0.652863960973E+03    0.57129E-04   -0.15444E-04  8806   0.305E-02    0.411E-02
RMM:  12    -0.652863977340E+03   -0.16367E-04   -0.10001E-04  7811   0.245E-02    0.530E-02
RMM:  13    -0.652863967759E+03    0.95817E-05   -0.55911E-05  6928   0.194E-02
  47 F= -.65286397E+03 E0= -.65278214E+03  d E =-.484084E-02
       N       E                     dE             d eps       ncg     rms          rms(c)
DAV:   1    -0.652800481677E+03    0.63496E-01   -0.21433E+00 10416   0.956E+00    0.523E-01
RMM:   2    -0.652870483863E+03   -0.70002E-01   -0.67883E-01 14678   0.207E+00    0.938E-01
RMM:   3    -0.652868112358E+03    0.23715E-02   -0.50797E-02 11320   0.835E-01    0.769E-01
RMM:   4    -0.652867136692E+03    0.97567E-03   -0.13153E-02 12813   0.332E-01    0.508E-01
RMM:   5    -0.652865832621E+03    0.13041E-02   -0.30422E-03 12242   0.170E-01    0.312E-01
RMM:   6    -0.652865302563E+03    0.53006E-03   -0.13633E-03 12388   0.867E-02    0.167E-01
RMM:   7    -0.652865638848E+03   -0.33628E-03   -0.96504E-04 11520   0.868E-02    0.292E-01
RMM:   8    -0.652865098896E+03    0.53995E-03   -0.82364E-04 12236   0.786E-02    0.961E-02
RMM:   9    -0.652865102182E+03   -0.32860E-05   -0.35429E-04 11821   0.437E-02    0.957E-02
RMM:  10    -0.652865080971E+03    0.21211E-04   -0.15867E-04  9071   0.337E-02    0.649E-02
RMM:  11    -0.652865067615E+03    0.13355E-04   -0.85964E-05  7428   0.216E-02    0.304E-02
RMM:  12    -0.652865075935E+03   -0.83200E-05   -0.53146E-05  6844   0.221E-02
  48 F= -.65286508E+03 E0= -.65278355E+03  d E =-.594902E-02
       N       E                     dE             d eps       ncg     rms          rms(c)
DAV:   1    -0.652768260239E+03    0.96807E-01   -0.34044E+00 10488   0.122E+01    0.768E-01
RMM:   2    -0.652890169052E+03   -0.12191E+00   -0.11077E+00 14605   0.263E+00    0.159E+00
RMM:   3    -0.652874580117E+03    0.15589E-01   -0.86389E-02 11563   0.107E+00    0.969E-01
RMM:   4    -0.652872678594E+03    0.19015E-02   -0.23220E-02 13196   0.406E-01    0.612E-01
RMM:   5    -0.652871230235E+03    0.14484E-02   -0.56286E-03 12836   0.212E-01    0.484E-01
RMM:   6    -0.652869911102E+03    0.13191E-02   -0.19739E-03 12341   0.120E-01    0.230E-01
RMM:   7    -0.652870240099E+03   -0.32900E-03   -0.14305E-03 11823   0.101E-01    0.330E-01
RMM:   8    -0.652869734755E+03    0.50534E-03   -0.13193E-03 12555   0.982E-02    0.218E-01
RMM:   9    -0.652869504902E+03    0.22985E-03   -0.55863E-04 12271   0.633E-02    0.995E-02
RMM:  10    -0.652869536695E+03   -0.31793E-04   -0.31924E-04 11764   0.433E-02    0.112E-01
RMM:  11    -0.652869467286E+03    0.69408E-04   -0.14122E-04  8953   0.295E-02    0.322E-02
RMM:  12    -0.652869478680E+03   -0.11394E-04   -0.95184E-05  7596   0.232E-02    0.453E-02
RMM:  13    -0.652869470234E+03    0.84463E-05   -0.45207E-05  6752   0.203E-02
  49 F= -.65286947E+03 E0= -.65278801E+03  d E =-.439430E-02
       N       E                     dE             d eps       ncg     rms          rms(c)
DAV:   1    -0.652851799091E+03    0.17680E-01   -0.62149E-01 10920   0.524E+00    0.330E-01
RMM:   2    -0.652874524811E+03   -0.22726E-01   -0.20233E-01 14510   0.112E+00    0.719E-01
RMM:   3    -0.652871230519E+03    0.32943E-02   -0.15983E-02 11434   0.462E-01    0.428E-01
RMM:   4    -0.652870836429E+03    0.39409E-03   -0.45315E-03 12848   0.181E-01    0.268E-01
RMM:   5    -0.652870600970E+03    0.23546E-03   -0.10037E-03 11406   0.988E-02    0.220E-01
RMM:   6    -0.652870328965E+03    0.27201E-03   -0.42833E-04 10831   0.574E-02    0.968E-02
RMM:   7    -0.652870374379E+03   -0.45414E-04   -0.27987E-04 10276   0.423E-02    0.126E-01
RMM:   8    -0.652870295264E+03    0.79115E-04   -0.27275E-04 11762   0.441E-02    0.869E-02
RMM:   9    -0.652870259094E+03    0.36170E-04   -0.86826E-05  7827   0.308E-02    0.421E-02
RMM:  10    -0.652870265426E+03   -0.63325E-05   -0.57130E-05  7240   0.232E-02
  50 F= -.65287027E+03 E0= -.65278884E+03  d E =-.518949E-02
       N       E                     dE             d eps       ncg     rms          rms(c)
DAV:   1    -0.652796072636E+03    0.74186E-01   -0.24839E+00 10560   0.105E+01    0.658E-01
RMM:   2    -0.652885574289E+03   -0.89502E-01   -0.80883E-01 14546   0.225E+00    0.139E+00
RMM:   3    -0.652873805330E+03    0.11769E-01   -0.63498E-02 11559   0.917E-01    0.865E-01
RMM:   4    -0.652872161876E+03    0.16435E-02   -0.17225E-02 13029   0.351E-01    0.532E-01
RMM:   5    -0.652871216768E+03    0.94511E-03   -0.40889E-03 12488   0.187E-01    0.444E-01
RMM:   6    -0.652870125038E+03    0.10917E-02   -0.15496E-03 11926   0.105E-01    0.200E-01
RMM:   7    -0.652870322809E+03   -0.19777E-03   -0.10522E-03 11645   0.830E-02    0.268E-01
RMM:   8    -0.652870027924E+03    0.29488E-03   -0.97549E-04 12524   0.844E-02    0.193E-01
RMM:   9    -0.652869830540E+03    0.19738E-03   -0.41719E-04 11659   0.570E-02    0.813E-02
RMM:  10    -0.652869858950E+03   -0.28410E-04   -0.24606E-04 11065   0.390E-02    0.960E-02
RMM:  11    -0.652869808113E+03    0.50836E-04   -0.11005E-04  8555   0.263E-02    0.288E-02
RMM:  12    -0.652869816082E+03   -0.79687E-05   -0.73442E-05  7194   0.224E-02
  51 F= -.65286982E+03 E0= -.65278849E+03  d E =-.474015E-02
       N       E                     dE             d eps       ncg     rms          rms(c)
DAV:   1    -0.652834681692E+03    0.35126E-01   -0.11827E+00 10584   0.725E+00    0.457E-01
RMM:   2    -0.652878581966E+03   -0.43900E-01   -0.39209E-01 14658   0.157E+00    0.989E-01
RMM:   3    -0.652872235425E+03    0.63465E-02   -0.31544E-02 11469   0.644E-01    0.578E-01
RMM:   4    -0.652871546283E+03    0.68914E-03   -0.83760E-03 13007   0.245E-01    0.365E-01
RMM:   5    -0.652871064306E+03    0.48198E-03   -0.17419E-03 12072   0.133E-01    0.300E-01
RMM:   6    -0.652870543440E+03    0.52087E-03   -0.65647E-04 10990   0.743E-02    0.131E-01
RMM:   7    -0.652870634040E+03   -0.90600E-04   -0.50210E-04 10787   0.581E-02    0.177E-01
RMM:   8    -0.652870464732E+03    0.16931E-03   -0.46704E-04 11859   0.587E-02    0.117E-01
RMM:   9    -0.652870402186E+03    0.62546E-04   -0.14118E-04  8970   0.394E-02    0.619E-02
RMM:  10    -0.652870411381E+03   -0.91957E-05   -0.87744E-05  8047   0.270E-02
  52 F= -.65287041E+03 E0= -.65278901E+03  d E =-.533545E-02
       N       E                     dE             d eps       ncg     rms          rms(c)
DAV:   1    -0.652816108419E+03    0.54294E-01   -0.18768E+00 10080   0.916E+00    0.538E-01
RMM:   2    -0.652880589302E+03   -0.64481E-01   -0.61835E-01 14593   0.201E+00    0.907E-01
RMM:   3    -0.652876359484E+03    0.42298E-02   -0.48160E-02 11503   0.766E-01    0.755E-01
RMM:   4    -0.652875413377E+03    0.94611E-03   -0.11148E-02 12395   0.315E-01    0.518E-01
RMM:   5    -0.652874169003E+03    0.12444E-02   -0.25418E-03 11910   0.172E-01    0.311E-01
RMM:   6    -0.652873684923E+03    0.48408E-03   -0.12778E-03 11949   0.810E-02    0.168E-01
RMM:   7    -0.652873915388E+03   -0.23047E-03   -0.85316E-04 11596   0.802E-02    0.255E-01
RMM:   8    -0.652873530481E+03    0.38491E-03   -0.66429E-04 12220   0.718E-02    0.131E-01
RMM:   9    -0.652873483096E+03    0.47385E-04   -0.28832E-04 10519   0.486E-02    0.958E-02
RMM:  10    -0.652873462649E+03    0.20447E-04   -0.15933E-04  9503   0.333E-02    0.627E-02
RMM:  11    -0.652873446285E+03    0.16364E-04   -0.70615E-05  7522   0.216E-02    0.259E-02
RMM:  12    -0.652873455752E+03   -0.94676E-05   -0.42915E-05  6740   0.205E-02
  53 F= -.65287346E+03 E0= -.65279226E+03  d E =-.304437E-02
       N       E                     dE             d eps       ncg     rms          rms(c)
DAV:   1    -0.652835828394E+03    0.37618E-01   -0.12490E+00 10176   0.747E+00    0.439E-01
RMM:   2    -0.652879077323E+03   -0.43249E-01   -0.41287E-01 14568   0.165E+00    0.767E-01
RMM:   3    -0.652876331048E+03    0.27463E-02   -0.33007E-02 11488   0.630E-01    0.657E-01
RMM:   4    -0.652875453044E+03    0.87800E-03   -0.76021E-03 12359   0.262E-01    0.419E-01
RMM:   5    -0.652874691586E+03    0.76146E-03   -0.18591E-03 11896   0.142E-01    0.254E-01
RMM:   6    -0.652874356283E+03    0.33530E-03   -0.92757E-04 11900   0.668E-02    0.135E-01
RMM:   7    -0.652874544393E+03   -0.18811E-03   -0.63427E-04 11359   0.678E-02    0.218E-01
RMM:   8    -0.652874285358E+03    0.25903E-03   -0.48912E-04 11917   0.608E-02    0.116E-01
RMM:   9    -0.652874237820E+03    0.47538E-04   -0.22323E-04 10047   0.422E-02    0.722E-02
RMM:  10    -0.652874232290E+03    0.55302E-05   -0.11578E-04  8823   0.276E-02    0.522E-02
RMM:  11    -0.652874221363E+03    0.10927E-04   -0.56935E-05  7068   0.202E-02    0.214E-02
RMM:  12    -0.652874229235E+03   -0.78716E-05   -0.32926E-05  6471   0.188E-02
  54 F= -.65287423E+03 E0= -.65279323E+03  d E =-.381785E-02
       N       E                     dE             d eps       ncg     rms          rms(c)
DAV:   1    -0.652848697793E+03    0.25524E-01   -0.95702E-01 10152   0.641E+00    0.331E-01
RMM:   2    -0.652878089711E+03   -0.29392E-01   -0.28967E-01 14559   0.139E+00    0.558E-01
RMM:   3    -0.652877273072E+03    0.81664E-03   -0.20597E-02 11538   0.547E-01    0.451E-01
RMM:   4    -0.652876924273E+03    0.34880E-03   -0.49438E-03 13130   0.203E-01    0.298E-01
RMM:   5    -0.652876455981E+03    0.46829E-03   -0.12170E-03 12352   0.105E-01    0.196E-01
RMM:   6    -0.652876263384E+03    0.19260E-03   -0.48478E-04 11905   0.529E-02    0.102E-01
RMM:   7    -0.652876384748E+03   -0.12136E-03   -0.43965E-04 11376   0.551E-02    0.178E-01
RMM:   8    -0.652876168208E+03    0.21654E-03   -0.32496E-04 11335   0.469E-02    0.563E-02
RMM:   9    -0.652876176464E+03   -0.82565E-05   -0.11282E-04  8237   0.301E-02    0.675E-02
RMM:  10    -0.652876165141E+03    0.11323E-04   -0.57810E-05  6842   0.252E-02    0.448E-02
RMM:  11    -0.652876154896E+03    0.10246E-04   -0.33692E-05  6696   0.182E-02    0.141E-02
RMM:  12    -0.652876157703E+03   -0.28077E-05   -0.20529E-05  6265   0.136E-02
  55 F= -.65287616E+03 E0= -.65279510E+03  d E =-.192847E-02
       N       E                     dE             d eps       ncg     rms          rms(c)
DAV:   1    -0.652865518225E+03    0.10637E-01   -0.39120E-01 10584   0.410E+00    0.214E-01
RMM:   2    -0.652877686253E+03   -0.12168E-01   -0.11858E-01 14485   0.890E-01    0.386E-01
RMM:   3    -0.652877221886E+03    0.46437E-03   -0.85563E-03 11483   0.354E-01    0.299E-01
RMM:   4    -0.652877081807E+03    0.14008E-03   -0.20925E-03 12833   0.133E-01    0.202E-01
RMM:   5    -0.652876884402E+03    0.19740E-03   -0.51499E-04 11112   0.720E-02    0.133E-01
RMM:   6    -0.652876788799E+03    0.95603E-04   -0.22042E-04 10406   0.366E-02    0.633E-02
RMM:   7    -0.652876846160E+03   -0.57361E-04   -0.17622E-04  9927   0.365E-02    0.120E-01
RMM:   8    -0.652876761792E+03    0.84368E-04   -0.13850E-04  9762   0.331E-02    0.555E-02
RMM:   9    -0.652876750957E+03    0.10835E-04   -0.52443E-05  6945   0.228E-02    0.314E-02
RMM:  10    -0.652876752280E+03   -0.13230E-05   -0.30950E-05  6552   0.186E-02
  56 F= -.65287675E+03 E0= -.65279567E+03  d E =-.252305E-02
       N       E                     dE             d eps       ncg     rms          rms(c)
DAV:   1    -0.652831621439E+03    0.45130E-01   -0.15640E+00 10104   0.819E+00    0.427E-01
RMM:   2    -0.652880039209E+03   -0.48418E-01   -0.47391E-01 14521   0.178E+00    0.752E-01
RMM:   3    -0.652878393497E+03    0.16457E-02   -0.33951E-02 11583   0.699E-01    0.594E-01
RMM:   4    -0.652877812409E+03    0.58109E-03   -0.82002E-03 13041   0.261E-01    0.399E-01
RMM:   5    -0.652877014086E+03    0.79832E-03   -0.20187E-03 12596   0.136E-01    0.260E-01
RMM:   6    -0.652876653713E+03    0.36037E-03   -0.83755E-04 12200   0.658E-02    0.129E-01
RMM:   7    -0.652876859556E+03   -0.20584E-03   -0.66971E-04 11744   0.677E-02    0.230E-01
RMM:   8    -0.652876535871E+03    0.32369E-03   -0.54548E-04 12080   0.613E-02    0.104E-01
RMM:   9    -0.652876503781E+03    0.32089E-04   -0.20867E-04  9914   0.381E-02    0.689E-02
RMM:  10    -0.652876504258E+03   -0.47689E-06   -0.11156E-04  8480   0.272E-02    0.586E-02
RMM:  11    -0.652876485581E+03    0.18678E-04   -0.56365E-05  7095   0.203E-02    0.209E-02
RMM:  12    -0.652876490678E+03   -0.50971E-05   -0.34397E-05  6556   0.176E-02
  57 F= -.65287649E+03 E0= -.65279530E+03  d E =-.226144E-02
       N       E                     dE             d eps       ncg     rms          rms(c)
DAV:   1    -0.652857744804E+03    0.18741E-01   -0.66868E-01 10200   0.536E+00    0.280E-01
RMM:   2    -0.652878589169E+03   -0.20844E-01   -0.20267E-01 14532   0.117E+00    0.511E-01
RMM:   3    -0.652877710150E+03    0.87902E-03   -0.14626E-02 11520   0.465E-01    0.393E-01
RMM:   4    -0.652877462592E+03    0.24756E-03   -0.35373E-03 12711   0.176E-01    0.264E-01
RMM:   5    -0.652877121834E+03    0.34076E-03   -0.79343E-04 11243   0.928E-02    0.178E-01
RMM:   6    -0.652876945593E+03    0.17624E-03   -0.34323E-04 10791   0.468E-02    0.830E-02
RMM:   7    -0.652877025017E+03   -0.79423E-04   -0.26982E-04 10330   0.445E-02    0.144E-01
RMM:   8    -0.652876886688E+03    0.13833E-03   -0.23310E-04 10738   0.409E-02    0.597E-02
RMM:   9    -0.652876876883E+03    0.98048E-05   -0.55716E-05  6899   0.262E-02
  58 F= -.65287688E+03 E0= -.65279573E+03  d E =-.264765E-02
       N       E                     dE             d eps       ncg     rms          rms(c)
DAV:   1    -0.652847833919E+03    0.29053E-01   -0.12882E+00 11592   0.737E+00    0.563E-01
RMM:   2    -0.652896846097E+03   -0.49012E-01   -0.39404E-01 13519   0.173E+00    0.132E+00
RMM:   3    -0.652881334701E+03    0.15511E-01   -0.33893E-02 11962   0.646E-01    0.725E-01
RMM:   4    -0.652879326146E+03    0.20086E-02   -0.97050E-03 12739   0.275E-01    0.392E-01
RMM:   5    -0.652878997936E+03    0.32821E-03   -0.23250E-03 12009   0.155E-01    0.378E-01
RMM:   6    -0.652878144548E+03    0.85339E-03   -0.95901E-04 11293   0.928E-02    0.161E-01
RMM:   7    -0.652878274552E+03   -0.13000E-03   -0.74638E-04 11216   0.723E-02    0.215E-01
RMM:   8    -0.652878063301E+03    0.21125E-03   -0.52925E-04 12028   0.689E-02    0.143E-01
RMM:   9    -0.652877967247E+03    0.96054E-04   -0.26240E-04 10923   0.475E-02    0.779E-02
RMM:  10    -0.652877980346E+03   -0.13099E-04   -0.12604E-04  9046   0.330E-02    0.862E-02
RMM:  11    -0.652877944492E+03    0.35854E-04   -0.58471E-05  7410   0.234E-02    0.274E-02
RMM:  12    -0.652877950385E+03   -0.58925E-05   -0.38864E-05  6786   0.196E-02
  59 F= -.65287795E+03 E0= -.65279693E+03  d E =-.107350E-02
       N       E                     dE             d eps       ncg     rms          rms(c)
DAV:   1    -0.652877858718E+03    0.85774E-04   -0.39499E-03 13488   0.406E-01    0.349E-02
RMM:   2    -0.652878043924E+03   -0.18521E-03   -0.11984E-03 12296   0.971E-02    0.102E-01
RMM:   3    -0.652877965394E+03    0.78529E-04   -0.11406E-04  7737   0.460E-02    0.492E-02
RMM:   4    -0.652877955648E+03    0.97465E-05   -0.35426E-05  6573   0.245E-02
  60 F= -.65287796E+03 E0= -.65279694E+03  d E =-.107877E-02
       N       E                     dE             d eps       ncg     rms          rms(c)
DAV:   1    -0.652877920765E+03    0.44629E-04   -0.18938E-03 13536   0.286E-01    0.292E-02
RMM:   2    -0.652878110888E+03   -0.19012E-03   -0.57831E-04 11463   0.733E-02    0.159E-01
RMM:   3    -0.652877964428E+03    0.14646E-03   -0.80551E-05  7185   0.415E-02    0.296E-02
RMM:   4    -0.652877963523E+03    0.90489E-06   -0.20564E-05  6054   0.197E-02
  61 F= -.65287796E+03 E0= -.65279696E+03  d E =-.108664E-02
       N       E                     dE             d eps       ncg     rms          rms(c)
DAV:   1    -0.652847606626E+03    0.30358E-01   -0.11804E+00 10776   0.708E+00    0.461E-01
RMM:   2    -0.652889517478E+03   -0.41911E-01   -0.36411E-01 14190   0.156E+00    0.107E+00
RMM:   3    -0.652880939115E+03    0.85784E-02   -0.28183E-02 11949   0.612E-01    0.616E-01
RMM:   4    -0.652879848004E+03    0.10911E-02   -0.80549E-03 13208   0.238E-01    0.377E-01
RMM:   5    -0.652879466169E+03    0.38183E-03   -0.17599E-03 11582   0.145E-01    0.332E-01
RMM:   6    -0.652878800851E+03    0.66532E-03   -0.80588E-04 11312   0.817E-02    0.128E-01
RMM:   7    -0.652878987926E+03   -0.18708E-03   -0.64304E-04 11521   0.613E-02    0.220E-01
RMM:   8    -0.652878761535E+03    0.22639E-03   -0.51765E-04 11755   0.648E-02    0.146E-01
RMM:   9    -0.652878654878E+03    0.10666E-03   -0.18925E-04 10000   0.415E-02    0.561E-02
RMM:  10    -0.652878665112E+03   -0.10234E-04   -0.10928E-04  8453   0.268E-02    0.604E-02
RMM:  11    -0.652878644429E+03    0.20683E-04   -0.49660E-05  6992   0.206E-02    0.217E-02
RMM:  12    -0.652878647954E+03   -0.35246E-05   -0.33648E-05  6561   0.166E-02
  62 F= -.65287865E+03 E0= -.65279751E+03  d E =-.684431E-03
       N       E                     dE             d eps       ncg     rms          rms(c)
DAV:   1    -0.652878080263E+03    0.56417E-03   -0.22391E-02 11712   0.973E-01    0.629E-02
RMM:   2    -0.652878851551E+03   -0.77129E-03   -0.65872E-03 14213   0.215E-01    0.154E-01
RMM:   3    -0.652878688765E+03    0.16279E-03   -0.52593E-04 10449   0.922E-02    0.813E-02
RMM:   4    -0.652878671285E+03    0.17479E-04   -0.15089E-04  9640   0.384E-02    0.541E-02
RMM:   5    -0.652878663377E+03    0.79082E-05   -0.31317E-05  6245   0.268E-02
  63 F= -.65287866E+03 E0= -.65279754E+03  d E =-.699855E-03
       N       E                     dE             d eps       ncg     rms          rms(c)
DAV:   1    -0.652857741557E+03    0.20930E-01   -0.76758E-01 10656   0.568E+00    0.330E-01
RMM:   2    -0.652882533467E+03   -0.24792E-01   -0.22914E-01 14579   0.122E+00    0.675E-01
RMM:   3    -0.652880047394E+03    0.24861E-02   -0.16462E-02 11561   0.528E-01    0.477E-01
RMM:   4    -0.652879521850E+03    0.52554E-03   -0.51825E-03 12934   0.199E-01    0.278E-01
RMM:   5    -0.652879178748E+03    0.34310E-03   -0.11427E-03 11419   0.110E-01    0.198E-01
RMM:   6    -0.652878975116E+03    0.20363E-03   -0.47048E-04 10843   0.569E-02    0.104E-01
RMM:   7    -0.652879011613E+03   -0.36497E-04   -0.28148E-04 10132   0.447E-02    0.128E-01
RMM:   8    -0.652878907365E+03    0.10425E-03   -0.24500E-04 10902   0.465E-02    0.665E-02
RMM:   9    -0.652878900344E+03    0.70210E-05   -0.11269E-04  8704   0.311E-02    0.568E-02
RMM:  10    -0.652878891475E+03    0.88682E-05   -0.54938E-05  7157   0.222E-02
  64 F= -.65287889E+03 E0= -.65279776E+03  d E =-.228098E-03
       N       E                     dE             d eps       ncg     rms          rms(c)
DAV:   1    -0.652875538548E+03    0.33618E-02   -0.12418E-01 10800   0.228E+00    0.130E-01
RMM:   2    -0.652879573243E+03   -0.40347E-02   -0.36604E-02 14555   0.488E-01    0.297E-01
RMM:   3    -0.652879147913E+03    0.42533E-03   -0.25857E-03 11377   0.216E-01    0.208E-01
RMM:   4    -0.652879029128E+03    0.11878E-03   -0.80513E-04 11798   0.841E-02    0.112E-01
RMM:   5    -0.652878980447E+03    0.48681E-04   -0.16443E-04  8630   0.482E-02    0.850E-02
RMM:   6    -0.652878940622E+03    0.39825E-04   -0.61294E-05  7082   0.261E-02    0.432E-02
RMM:   7    -0.652878943633E+03   -0.30105E-05   -0.35061E-05  6604   0.228E-02
  65 F= -.65287894E+03 E0= -.65279782E+03  d E =-.280255E-03
       N       E                     dE             d eps       ncg     rms          rms(c)
DAV:   1    -0.652878146762E+03    0.79386E-03   -0.31133E-02 11832   0.113E+00    0.810E-02
RMM:   2    -0.652879735776E+03   -0.15890E-02   -0.95946E-03 13717   0.258E-01    0.352E-01
RMM:   3    -0.652878986350E+03    0.74943E-03   -0.86448E-04 10575   0.123E-01    0.971E-02
RMM:   4    -0.652878962510E+03    0.23840E-04   -0.26947E-04  9943   0.494E-02    0.704E-02
RMM:   5    -0.652878947443E+03    0.15067E-04   -0.53840E-05  6826   0.286E-02    0.489E-02
RMM:   6    -0.652878932598E+03    0.14845E-04   -0.18400E-05  6029   0.200E-02    0.235E-02
RMM:   7    -0.652878930950E+03    0.16484E-05   -0.90372E-06  5650   0.133E-02
  66 F= -.65287893E+03 E0= -.65279780E+03  d E =-.267573E-03
       N       E                     dE             d eps       ncg     rms          rms(c)
DAV:   1    -0.652877471908E+03    0.14607E-02   -0.72246E-02 11568   0.158E+00    0.129E-01
RMM:   2    -0.652880106929E+03   -0.26350E-02   -0.20970E-02 14167   0.408E-01    0.328E-01
RMM:   3    -0.652879382209E+03    0.72472E-03   -0.23161E-03 11295   0.154E-01    0.172E-01
RMM:   4    -0.652879286930E+03    0.95279E-04   -0.52400E-04 11892   0.700E-02    0.108E-01
RMM:   5    -0.652879270298E+03    0.16632E-04   -0.14152E-04  8409   0.425E-02    0.104E-01
RMM:   6    -0.652879210033E+03    0.60265E-04   -0.71447E-05  7655   0.262E-02    0.434E-02
RMM:   7    -0.652879211648E+03   -0.16157E-05   -0.47819E-05  7006   0.235E-02
  67 F= -.65287921E+03 E0= -.65279799E+03  d E =-.280699E-03
       N       E                     dE             d eps       ncg     rms          rms(c)
DAV:   1    -0.652876673114E+03    0.25369E-02   -0.10581E-01 11040   0.192E+00    0.159E-01
RMM:   2    -0.652880986298E+03   -0.43132E-02   -0.31346E-02 14246   0.497E-01    0.490E-01
RMM:   3    -0.652879605662E+03    0.13806E-02   -0.35612E-03 11526   0.188E-01    0.231E-01
RMM:   4    -0.652879383212E+03    0.22245E-03   -0.80513E-04 11998   0.867E-02    0.116E-01
RMM:   5    -0.652879364124E+03    0.19087E-04   -0.27204E-04 10661   0.484E-02    0.117E-01
RMM:   6    -0.652879287921E+03    0.76203E-04   -0.92995E-05  7781   0.347E-02    0.649E-02
RMM:   7    -0.652879282657E+03    0.52641E-05   -0.79813E-05  7790   0.270E-02
  68 F= -.65287928E+03 E0= -.65279804E+03  d E =-.351707E-03
       N       E                     dE             d eps       ncg     rms          rms(c)
DAV:   1    -0.652876288078E+03    0.29998E-02   -0.11251E-01 10080   0.200E+00    0.112E-01
RMM:   2    -0.652880642356E+03   -0.43543E-02   -0.32410E-02 14610   0.477E-01    0.478E-01
RMM:   3    -0.652879491459E+03    0.11509E-02   -0.30855E-03 11328   0.199E-01    0.128E-01
RMM:   4    -0.652879527528E+03   -0.36069E-04   -0.69161E-04 12060   0.746E-02    0.118E-01
RMM:   5    -0.652879462007E+03    0.65521E-04   -0.14912E-04  8560   0.408E-02    0.702E-02
RMM:   6    -0.652879439271E+03    0.22736E-04   -0.66655E-05  7200   0.226E-02    0.336E-02
RMM:   7    -0.652879439383E+03   -0.11129E-06   -0.34436E-05  6766   0.200E-02
  69 F= -.65287944E+03 E0= -.65279810E+03  d E =-.156725E-03
       N       E                     dE             d eps       ncg     rms          rms(c)
DAV:   1    -0.652879437084E+03    0.21873E-05   -0.64952E-04 14760   0.150E-01    0.491E-02
RMM:   2    -0.652880098976E+03   -0.66189E-03   -0.58581E-04 10188   0.734E-02    0.334E-01
RMM:   3    -0.652879453366E+03    0.64561E-03   -0.19726E-04  8327   0.588E-02    0.462E-02
RMM:   4    -0.652879435247E+03    0.18119E-04   -0.27020E-05  6403   0.191E-02    0.170E-02
RMM:   5    -0.652879435007E+03    0.23936E-06   -0.77747E-06  5396   0.144E-02
  70 F= -.65287944E+03 E0= -.65279812E+03  d E =-.152350E-03
