<?xml version="1.0" encoding="ISO-8859-1"?>
<modeling>
 <generator>
  <i name="program" type="string">vasp </i>
  <i name="version" type="string">5.4.4.18Apr17-6-g9f103f2a35  </i>
  <i name="subversion" type="string">(build Oct 18 2021 20:38:43) complex            parallel </i>
  <i name="platform" type="string">LinuxIFC </i>
  <i name="date" type="string">2024 06 11 </i>
  <i name="time" type="string">17:03:12 </i>
 </generator>
 <incar>
  <i type="string" name="SYSTEM">HECN</i>
  <i type="int" name="ISTART">     0</i>
  <i type="string" name="PREC">normal</i>
  <i type="string" name="ALGO">Fast</i>
  <i type="int" name="ICHARG">     2</i>
  <i type="int" name="NELM">    60</i>
  <i type="int" name="IBRION">     2</i>
  <i name="EDIFF">      0.00001000</i>
  <i name="EDIFFG">     -0.01000000</i>
  <i type="int" name="NSW">   100</i>
  <i type="int" name="ISIF">     3</i>
  <i name="ENCUT">    400.00000000</i>
  <i name="POTIM">      0.50000000</i>
  <i type="logical" name="LREAL"> F  </i>
  <i type="int" name="ISMEAR">     0</i>
  <i name="SIGMA">      0.10000000</i>
  <i type="logical" name="LWAVE"> F  </i>
  <i type="logical" name="LCHARG"> F  </i>
  <v type="int" name="KPOINT_BSE">    -1     0     0     0</v>
  <i type="int" name="NELM">    60</i>
 </incar>
 <structure name="primitive_cell" >
  <crystal>
   <varray name="basis" >
    <v>       8.93249989       0.00000000       0.00000000 </v>
    <v>       0.00575300       9.05559834       0.00000000 </v>
    <v>       0.03210180      -0.01574346       8.93712807 </v>
   </varray>
   <i name="volume">    722.91652451 </i>
   <varray name="rec_basis" >
    <v>       0.11195074      -0.00007112      -0.00040225 </v>
    <v>       0.00000000       0.11042893       0.00019453 </v>
    <v>       0.00000000       0.00000000       0.11189277 </v>
   </varray>
  </crystal>
  <varray name="positions" >
   <v>      -0.00311999      -0.00795003      -0.00075998 </v>
   <v>      -0.25232999      -0.00252000       0.01202000 </v>
   <v>      -0.00162995      -0.25686004       0.00460000 </v>
   <v>      -0.00280000      -0.00228008       0.25899999 </v>
   <v>       0.00281000       0.25024000       0.00130000 </v>
   <v>      -0.01103011       0.00202000      -0.26291001 </v>
   <v>       0.26146999      -0.00015998      -0.00704004 </v>
   <v>      -0.00135002      -0.22426001       0.26102000 </v>
   <v>      -0.25720997      -0.02130006      -0.23549005 </v>
   <v>       0.23780002       0.01082000      -0.25392002 </v>
   <v>      -0.24282000      -0.25897003       0.01100000 </v>
   <v>       0.24762001      -0.25026001      -0.00025994 </v>
   <v>      -0.00485996      -0.25507996      -0.25488003 </v>
   <v>      -0.24281000       0.25603001      -0.00408003 </v>
   <v>       0.25398003      -0.00285005       0.24912000 </v>
   <v>       0.24788999       0.24839000      -0.00342003 </v>
   <v>      -0.00562996       0.23617001       0.26379999 </v>
   <v>      -0.25120996      -0.01212001       0.26967001 </v>
   <v>       0.00201000       0.25541000      -0.26105999 </v>
   <v>       0.24177002      -0.24659003      -0.24981998 </v>
   <v>      -0.24963995      -0.25112000      -0.25243996 </v>
   <v>      -0.24255004       0.24437997      -0.25103001 </v>
   <v>       0.25133999      -0.25041998       0.24910999 </v>
   <v>      -0.24367000      -0.26108997       0.25767000 </v>
   <v>      -0.24686002       0.24616999       0.25492002 </v>
   <v>       0.24982001       0.24942998       0.24825000 </v>
   <v>       0.24900999       0.25315000      -0.25146000 </v>
   <v>      -0.48411003       0.01358000      -0.01924992 </v>
   <v>      -0.00158006      -0.49023002      -0.01386996 </v>
   <v>       0.02362000      -0.00216999       0.49557002 </v>
   <v>      -0.49480995      -0.23869001       0.00855000 </v>
   <v>      -0.49285006      -0.00023001       0.24673000 </v>
   <v>      -0.24160996      -0.49684002       0.00288000 </v>
   <v>      -0.00999997      -0.23784997       0.49746000 </v>
   <v>      -0.00948001       0.48088003       0.24100999 </v>
   <v>       0.24446000      -0.00176004      -0.49712002 </v>
   <v>      -0.26367999       0.00417000      -0.48937000 </v>
   <v>       0.24328000      -0.49927003      -0.00489006 </v>
   <v>      -0.49572003       0.24673000       0.00262000 </v>
   <v>      -0.00796004      -0.49944001      -0.24861998 </v>
   <v>      -0.00195991       0.24229999      -0.49871997 </v>
   <v>      -0.49991002       0.00061000      -0.26528002 </v>
   <v>      -0.26123997      -0.47171998      -0.26185001 </v>
   <v>       0.49950005      -0.24518001      -0.25182996 </v>
   <v>       0.24457999      -0.24951001       0.49983999 </v>
   <v>      -0.24599997      -0.27062001       0.49116997 </v>
   <v>      -0.49520997       0.24631001      -0.25289998 </v>
   <v>       0.24803003      -0.49835000       0.24955001 </v>
   <v>      -0.26448999      -0.48531996       0.26666001 </v>
   <v>      -0.49167000       0.25676999       0.25376001 </v>
   <v>      -0.49620997      -0.26073003       0.25905001 </v>
   <v>      -0.24692999       0.26163001      -0.49466998 </v>
   <v>       0.25272001       0.24823001      -0.49984997 </v>
   <v>       0.25679999       0.49462002      -0.25454998 </v>
   <v>       0.47957999      -0.01691999       0.49717999 </v>
   <v>      -0.49498994       0.49745998      -0.00165997 </v>
   <v>      -0.00572008      -0.49550001       0.49779000 </v>
   <v>      -0.49436004       0.23264998       0.49544997 </v>
   <v>      -0.49424994      -0.25041998       0.49720000 </v>
   <v>      -0.49299998      -0.49666998       0.25878999 </v>
   <v>      -0.49498997      -0.49782002      -0.26087997 </v>
   <v>      -0.25963999      -0.49803000      -0.49932997 </v>
   <v>       0.25841001      -0.49937998      -0.49870999 </v>
   <v>      -0.49461000      -0.47166995       0.49917999 </v>
  </varray>
 </structure>
 <varray name="primitive_index" >
  <v type="int" >        1 </v>
  <v type="int" >       25 </v>
  <v type="int" >       38 </v>
  <v type="int" >       34 </v>
  <v type="int" >       23 </v>
  <v type="int" >       29 </v>
  <v type="int" >       22 </v>
  <v type="int" >       59 </v>
  <v type="int" >       58 </v>
  <v type="int" >       56 </v>
  <v type="int" >        9 </v>
  <v type="int" >       18 </v>
  <v type="int" >       12 </v>
  <v type="int" >       17 </v>
  <v type="int" >        2 </v>
  <v type="int" >       14 </v>
  <v type="int" >        8 </v>
  <v type="int" >       16 </v>
  <v type="int" >       10 </v>
  <v type="int" >       45 </v>
  <v type="int" >       49 </v>
  <v type="int" >       30 </v>
  <v type="int" >       36 </v>
  <v type="int" >       39 </v>
  <v type="int" >       24 </v>
  <v type="int" >       21 </v>
  <v type="int" >       42 </v>
  <v type="int" >       53 </v>
  <v type="int" >       54 </v>
  <v type="int" >       61 </v>
  <v type="int" >       28 </v>
  <v type="int" >       26 </v>
  <v type="int" >       40 </v>
  <v type="int" >       47 </v>
  <v type="int" >       27 </v>
  <v type="int" >       43 </v>
  <v type="int" >       31 </v>
  <v type="int" >       37 </v>
  <v type="int" >       35 </v>
  <v type="int" >       48 </v>
  <v type="int" >       44 </v>
  <v type="int" >       33 </v>
  <v type="int" >       63 </v>
  <v type="int" >        7 </v>
  <v type="int" >       20 </v>
  <v type="int" >       64 </v>
  <v type="int" >        5 </v>
  <v type="int" >        3 </v>
  <v type="int" >       60 </v>
  <v type="int" >       15 </v>
  <v type="int" >       55 </v>
  <v type="int" >       11 </v>
  <v type="int" >       19 </v>
  <v type="int" >       13 </v>
  <v type="int" >       57 </v>
  <v type="int" >        4 </v>
  <v type="int" >        6 </v>
  <v type="int" >       32 </v>
  <v type="int" >       51 </v>
  <v type="int" >       41 </v>
  <v type="int" >       52 </v>
  <v type="int" >       50 </v>
  <v type="int" >       46 </v>
  <v type="int" >       62 </v>
 </varray>
 <kpoints>
  <generation param="Gamma">
   <v type="int" name="divisions">       3        3        3 </v>
   <v name="usershift">      0.00000000       0.00000000       0.00000000 </v>
   <v name="genvec1">      0.33333333      -0.00000000      -0.00000000 </v>
   <v name="genvec2">      0.00000000       0.33333333       0.00000000 </v>
   <v name="genvec3">      0.00000000       0.00000000       0.33333333 </v>
   <v name="shift">      0.00000000       0.00000000       0.00000000 </v>
  </generation>
  <varray name="kpointlist" >
   <v>       0.00000000       0.00000000       0.00000000 </v>
   <v>       0.33333333       0.00000000       0.00000000 </v>
   <v>       0.00000000       0.33333333       0.00000000 </v>
   <v>       0.33333333       0.33333333       0.00000000 </v>
   <v>      -0.33333333       0.33333333       0.00000000 </v>
   <v>       0.00000000       0.00000000       0.33333333 </v>
   <v>       0.33333333       0.00000000       0.33333333 </v>
   <v>      -0.33333333       0.00000000       0.33333333 </v>
   <v>       0.00000000       0.33333333       0.33333333 </v>
   <v>       0.33333333       0.33333333       0.33333333 </v>
   <v>      -0.33333333       0.33333333       0.33333333 </v>
   <v>       0.00000000      -0.33333333       0.33333333 </v>
   <v>       0.33333333      -0.33333333       0.33333333 </v>
   <v>      -0.33333333      -0.33333333       0.33333333 </v>
  </varray>
  <varray name="weights" >
   <v>       0.03703704 </v>
   <v>       0.07407407 </v>
   <v>       0.07407407 </v>
   <v>       0.07407407 </v>
   <v>       0.07407407 </v>
   <v>       0.07407407 </v>
   <v>       0.07407407 </v>
   <v>       0.07407407 </v>
   <v>       0.07407407 </v>
   <v>       0.07407407 </v>
   <v>       0.07407407 </v>
   <v>       0.07407407 </v>
   <v>       0.07407407 </v>
   <v>       0.07407407 </v>
  </varray>
 </kpoints>
 <parameters>
  <separator name="general" >
   <i type="string" name="SYSTEM">HECN</i>
   <i type="logical" name="LCOMPAT"> F  </i>
  </separator>
  <separator name="electronic" >
   <i type="string" name="PREC">normal</i>
   <i name="ENMAX">    400.00000000</i>
   <i name="ENAUG">    644.87300000</i>
   <i name="EDIFF">      0.00001000</i>
   <i type="int" name="IALGO">    68</i>
   <i type="int" name="IWAVPR">    11</i>
   <i type="int" name="NBANDS">   336</i>
   <i name="NELECT">    533.00000000</i>
   <i type="int" name="TURBO">     0</i>
   <i type="int" name="IRESTART">     0</i>
   <i type="int" name="NREBOOT">     0</i>
   <i type="int" name="NMIN">     0</i>
   <i name="EREF">      0.00000000</i>
   <separator name="electronic smearing" >
    <i type="int" name="ISMEAR">     0</i>
    <i name="SIGMA">      0.10000000</i>
    <i name="KSPACING">      0.50000000</i>
    <i type="logical" name="KGAMMA"> T  </i>
   </separator>
   <separator name="electronic projectors" >
    <i type="logical" name="LREAL"> F  </i>
    <v name="ROPT">      0.00000000      0.00000000      0.00000000      0.00000000      0.00000000      0.00000000      0.00000000</v>
    <i type="int" name="LMAXPAW">  -100</i>
    <i type="int" name="LMAXMIX">     2</i>
    <i type="logical" name="NLSPLINE"> F  </i>
   </separator>
   <separator name="electronic startup" >
    <i type="int" name="ISTART">     0</i>
    <i type="int" name="ICHARG">     2</i>
    <i type="int" name="INIWAV">     1</i>
   </separator>
   <separator name="electronic spin" >
    <i type="int" name="ISPIN">     1</i>
    <i type="logical" name="LNONCOLLINEAR"> F  </i>
    <v name="MAGMOM">      1.00000000      1.00000000      1.00000000      1.00000000      1.00000000      1.00000000      1.00000000      1.00000000      1.00000000      1.00000000      1.00000000      1.00000000      1.00000000      1.00000000      1.00000000      1.00000000      1.00000000      1.00000000      1.00000000      1.00000000
      1.00000000      1.00000000      1.00000000      1.00000000      1.00000000      1.00000000      1.00000000      1.00000000      1.00000000      1.00000000      1.00000000      1.00000000      1.00000000      1.00000000      1.00000000      1.00000000      1.00000000      1.00000000      1.00000000      1.00000000
      1.00000000      1.00000000      1.00000000      1.00000000      1.00000000      1.00000000      1.00000000      1.00000000      1.00000000      1.00000000      1.00000000      1.00000000      1.00000000      1.00000000      1.00000000      1.00000000      1.00000000      1.00000000      1.00000000      1.00000000
      1.00000000      1.00000000      1.00000000      1.00000000</v>
    <i name="NUPDOWN">     -1.00000000</i>
    <i type="logical" name="LSORBIT"> F  </i>
    <v name="SAXIS">      0.00000000      0.00000000      1.00000000</v>
    <i type="logical" name="LSPIRAL"> F  </i>
    <v name="QSPIRAL">      0.00000000      0.00000000      0.00000000</v>
    <i type="logical" name="LZEROZ"> F  </i>
   </separator>
   <separator name="electronic exchange-correlation" >
    <i type="logical" name="LASPH"> F  </i>
    <i type="logical" name="LMETAGGA"> F  </i>
   </separator>
   <separator name="electronic convergence" >
    <i type="int" name="NELM">    60</i>
    <i type="int" name="NELMDL">    -5</i>
    <i type="int" name="NELMIN">     2</i>
    <i name="ENINI">    400.00000000</i>
    <separator name="electronic convergence detail" >
     <i type="logical" name="LDIAG"> T  </i>
     <i type="logical" name="LSUBROT"> F  </i>
     <i name="WEIMIN">      0.00100000</i>
     <i name="EBREAK">      0.00000001</i>
     <i name="DEPER">      0.30000000</i>
     <i type="int" name="NRMM">     4</i>
     <i name="TIME">      0.40000000</i>
    </separator>
   </separator>
   <separator name="electronic mixer" >
    <i name="AMIX">      0.40000000</i>
    <i name="BMIX">      1.00000000</i>
    <i name="AMIN">      0.10000000</i>
    <i name="AMIX_MAG">      1.60000000</i>
    <i name="BMIX_MAG">      1.00000000</i>
    <separator name="electronic mixer details" >
     <i type="int" name="IMIX">     4</i>
     <i type="logical" name="MIXFIRST"> F  </i>
     <i type="int" name="MAXMIX">   -45</i>
     <i name="WC">    100.00000000</i>
     <i type="int" name="INIMIX">     1</i>
     <i type="int" name="MIXPRE">     1</i>
     <i type="int" name="MREMOVE">     5</i>
    </separator>
   </separator>
   <separator name="electronic dipolcorrection" >
    <i type="logical" name="LDIPOL"> F  </i>
    <i type="logical" name="LMONO"> F  </i>
    <i type="int" name="IDIPOL">     0</i>
    <i name="EPSILON">      1.00000000</i>
    <v name="DIPOL">   -100.00000000   -100.00000000   -100.00000000</v>
    <i name="EFIELD">      0.00000000</i>
   </separator>
  </separator>
  <separator name="grids" >
   <i type="int" name="NGX">    48</i>
   <i type="int" name="NGY">    48</i>
   <i type="int" name="NGZ">    48</i>
   <i type="int" name="NGXF">    96</i>
   <i type="int" name="NGYF">    96</i>
   <i type="int" name="NGZF">    96</i>
   <i type="logical" name="ADDGRID"> F  </i>
  </separator>
  <separator name="ionic" >
   <i type="int" name="NSW">   100</i>
   <i type="int" name="IBRION">     2</i>
   <i type="int" name="MDALGO">     0</i>
   <i type="int" name="ISIF">     3</i>
   <i name="PSTRESS">      0.00000000</i>
   <i name="EDIFFG">     -0.01000000</i>
   <i type="int" name="NFREE">     1</i>
   <i name="POTIM">      0.50000000</i>
   <i name="SMASS">     -3.00000000</i>
   <i name="SCALEE">      1.00000000</i>
  </separator>
  <separator name="ionic md" >
   <i name="TEBEG">      0.00010000</i>
   <i name="TEEND">      0.00010000</i>
   <i type="int" name="NBLOCK">     1</i>
   <i type="int" name="KBLOCK">   100</i>
   <i type="int" name="NPACO">   256</i>
   <i name="APACO">     16.00000000</i>
  </separator>
  <separator name="symmetry" >
   <i type="int" name="ISYM">     2</i>
   <i name="SYMPREC">      0.00001000</i>
  </separator>
  <separator name="dos" >
   <i type="int" name="LORBIT">     0</i>
   <v name="RWIGS">     -1.00000000     -1.00000000     -1.00000000     -1.00000000     -1.00000000     -1.00000000     -1.00000000</v>
   <i type="int" name="NEDOS">   301</i>
   <i name="EMIN">     10.00000000</i>
   <i name="EMAX">    -10.00000000</i>
   <i name="EFERMI">      0.00000000</i>
  </separator>
  <separator name="writing" >
   <i type="int" name="NWRITE">     2</i>
   <i type="logical" name="LWAVE"> F  </i>
   <i type="logical" name="LDOWNSAMPLE"> F  </i>
   <i type="logical" name="LCHARG"> F  </i>
   <i type="logical" name="LPARD"> F  </i>
   <i type="logical" name="LVTOT"> F  </i>
   <i type="logical" name="LVHAR"> F  </i>
   <i type="logical" name="LELF"> F  </i>
   <i type="logical" name="LOPTICS"> F  </i>
   <v name="STM">      0.00000000      0.00000000      0.00000000      0.00000000      0.00000000      0.00000000      0.00000000</v>
  </separator>
  <separator name="performance" >
   <i type="int" name="NPAR">    24</i>
   <i type="int" name="NSIM">     4</i>
   <i type="int" name="NBLK">    -1</i>
   <i type="logical" name="LPLANE"> T  </i>
   <i type="logical" name="LSCALAPACK"> T  </i>
   <i type="logical" name="LSCAAWARE"> F  </i>
   <i type="logical" name="LSCALU"> F  </i>
   <i type="logical" name="LASYNC"> F  </i>
   <i type="logical" name="LORBITALREAL"> F  </i>
  </separator>
  <separator name="miscellaneous" >
   <i type="int" name="IDIOT">     3</i>
   <i type="int" name="ISPECIAL">     0</i>
   <i type="logical" name="LMUSIC"> F  </i>
   <v name="POMASS">     92.91000000    180.94800000     50.94100000     14.00100000     12.01100000     51.99600000    183.85000000</v>
   <v name="DARWINR">      0.00000000      0.00000000      0.00000000      0.00000000      0.00000000      0.00000000      0.00000000</v>
   <v name="DARWINV">      1.00000000      1.00000000      1.00000000      1.00000000      1.00000000      1.00000000      1.00000000</v>
   <i type="logical" name="LCORR"> T  </i>
  </separator>
  <i type="logical" name="GGA_COMPAT"> T  </i>
  <i type="logical" name="LBERRY"> F  </i>
  <i type="int" name="ICORELEVEL">     0</i>
  <i type="logical" name="LDAU"> F  </i>
  <i type="int" name="I_CONSTRAINED_M">     0</i>
  <separator name="electronic exchange-correlation" >
   <i type="string" name="GGA">--</i>
   <i type="int" name="VOSKOWN">     0</i>
   <i type="logical" name="LHFCALC"> F  </i>
   <i type="string" name="PRECFOCK"></i>
   <i type="logical" name="LSYMGRAD"> F  </i>
   <i type="logical" name="LHFONE"> F  </i>
   <i type="logical" name="LRHFCALC"> F  </i>
   <i type="logical" name="LTHOMAS"> F  </i>
   <i type="logical" name="LMODELHF"> F  </i>
   <i name="ENCUT4O">     -1.00000000</i>
   <i type="int" name="EXXOEP">     0</i>
   <i type="int" name="FOURORBIT">     0</i>
   <i name="AEXX">      0.00000000</i>
   <i name="HFALPHA">      0.00000000</i>
   <i name="MCALPHA">      0.00000000</i>
   <i name="ALDAX">      1.00000000</i>
   <i name="AGGAX">      1.00000000</i>
   <i name="ALDAC">      1.00000000</i>
   <i name="AGGAC">      1.00000000</i>
   <i type="int" name="NKREDX">     1</i>
   <i type="int" name="NKREDY">     1</i>
   <i type="int" name="NKREDZ">     1</i>
   <i type="logical" name="SHIFTRED"> F  </i>
   <i type="logical" name="ODDONLY"> F  </i>
   <i type="logical" name="EVENONLY"> F  </i>
   <i type="int" name="LMAXFOCK">     0</i>
   <i type="int" name="NMAXFOCKAE">     0</i>
   <i type="logical" name="LFOCKAEDFT"> F  </i>
   <i name="HFSCREEN">      0.00000000</i>
   <i name="HFSCREENC">      0.00000000</i>
   <i type="int" name="NBANDSGWLOW">     0</i>
  </separator>
  <separator name="vdW DFT" >
   <i type="logical" name="LUSE_VDW"> F  </i>
   <i name="Zab_VDW">     -0.84910000</i>
   <i name="PARAM1">      0.12340000</i>
   <i name="PARAM2">      1.00000000</i>
   <i name="PARAM3">      0.00000000</i>
  </separator>
  <separator name="model GW" >
   <i type="int" name="MODEL_GW">     0</i>
   <i name="MODEL_EPS0">      6.77734242</i>
   <i name="MODEL_ALPHA">      1.00000000</i>
  </separator>
  <separator name="linear response parameters" >
   <i type="logical" name="LEPSILON"> F  </i>
   <i type="logical" name="LRPA"> F  </i>
   <i type="logical" name="LNABLA"> F  </i>
   <i type="logical" name="LVEL"> F  </i>
   <i type="int" name="KINTER">     0</i>
   <i name="CSHIFT">      0.10000000</i>
   <i name="OMEGAMAX">     -1.00000000</i>
   <i name="DEG_THRESHOLD">      0.00200000</i>
   <i name="RTIME">     -0.10000000</i>
   <i name="WPLASMAI">      0.00000000</i>
   <v name="DFIELD">      0.00000000      0.00000000      0.00000000</v>
   <v name="WPLASMA">      0.00000000      0.00000000      0.00000000      0.00000000      0.00000000      0.00000000      0.00000000      0.00000000      0.00000000</v>
  </separator>
  <separator name="orbital magnetization" >
   <i type="logical" name="NUCIND"> F  </i>
   <v name="MAGPOS">      0.00000000      0.00000000      0.00000000</v>
   <i type="logical" name="LNICSALL"> T  </i>
   <i type="logical" name="ORBITALMAG"> F  </i>
   <i type="logical" name="LMAGBLOCH"> F  </i>
   <i type="logical" name="LCHIMAG"> F  </i>
   <i type="logical" name="LGAUGE"> T  </i>
   <i type="int" name="MAGATOM">     0</i>
   <v name="MAGDIPOL">      0.00000000      0.00000000      0.00000000</v>
   <v name="AVECCONST">      0.00000000      0.00000000      0.00000000</v>
  </separator>
  <separator name="response functions" >
   <i type="logical" name="LADDER"> F  </i>
   <i type="logical" name="LRPAFORCE"> F  </i>
   <i type="logical" name="LFXC"> F  </i>
   <i type="logical" name="LHARTREE"> T  </i>
   <i type="int" name="IBSE">     0</i>
   <v type="int" name="KPOINT">    -1     0     0     0</v>
   <i type="logical" name="LTCTE"> F  </i>
   <i type="logical" name="LTETE"> F  </i>
   <i type="logical" name="LTRIPLET"> F  </i>
   <i type="logical" name="LFXCEPS"> F  </i>
   <i type="logical" name="LFXHEG"> F  </i>
   <i type="int" name="NATURALO">     2</i>
   <i type="logical" name="L2ORDER"> F  </i>
   <i type="logical" name="LMP2LT"> F  </i>
   <i type="logical" name="LUSEW"> F  </i>
   <i name="ENCUTGW">     -2.00000000</i>
   <i name="ENCUTGWSOFT">     -2.00000000</i>
   <i name="ENCUTLF">     -1.00000000</i>
   <i type="int" name="LMAXMP2">    -1</i>
   <i name="SCISSOR">      0.00000000</i>
   <i type="int" name="NOMEGA">     0</i>
   <i type="int" name="NOMEGAR">     0</i>
   <i type="int" name="NBANDSGW">    -1</i>
   <i type="int" name="NBANDSO">    -1</i>
   <i type="int" name="NBANDSV">    -1</i>
   <i type="int" name="NELM">    60</i>
   <i type="int" name="NELMHF">     1</i>
   <i type="int" name="DIM">     3</i>
   <i type="int" name="ANTIRES">     0</i>
   <i name="OMEGAMAX">    -30.00000000</i>
   <i name="OMEGAMIN">    -30.00000000</i>
   <i name="OMEGATL">   -200.00000000</i>
   <i type="int" name="OMEGAGRID">   140</i>
   <i name="CSHIFT">     -0.10000000</i>
   <i type="logical" name="SELFENERGY"> F  </i>
   <i type="logical" name="LSPECTRAL"> F  </i>
   <i type="logical" name="LSPECTRALGW"> F  </i>
   <i type="logical" name="LSINGLES"> F  </i>
   <i type="logical" name="LFERMIGW"> F  </i>
   <i type="logical" name="ODDONLYGW"> F  </i>
   <i type="logical" name="EVENONLYGW"> F  </i>
   <i type="int" name="NKREDLFX">     1</i>
   <i type="int" name="NKREDLFY">     1</i>
   <i type="int" name="NKREDLFZ">     1</i>
   <i type="int" name="MAXMEM">  2800</i>
   <i type="int" name="TELESCOPE">     0</i>
   <i type="int" name="TAUPAR">     1</i>
   <i type="int" name="OMEGAPAR">    -1</i>
   <i name="LAMBDA">      1.00000000</i>
  </separator>
  <separator name="External order field" >
   <i name="OFIELD_KAPPA">      0.00000000</i>
   <v name="OFIELD_K">      0.00000000      0.00000000      0.00000000</v>
   <i name="OFIELD_Q6_NEAR">      0.00000000</i>
   <i name="OFIELD_Q6_FAR">      0.00000000</i>
   <i name="OFIELD_A">      0.00000000</i>
  </separator>
 </parameters>
 <atominfo>
  <atoms>      64 </atoms>
  <types>       7 </types>
  <array name="atoms" >
   <dimension dim="1">ion</dimension>
   <field type="string">element</field>
   <field type="int">atomtype</field>
   <set>
    <rc><c>Nb</c><c>   1</c></rc>
    <rc><c>Nb</c><c>   1</c></rc>
    <rc><c>Nb</c><c>   1</c></rc>
    <rc><c>Nb</c><c>   1</c></rc>
    <rc><c>Nb</c><c>   1</c></rc>
    <rc><c>Nb</c><c>   1</c></rc>
    <rc><c>Nb</c><c>   1</c></rc>
    <rc><c>Ta</c><c>   2</c></rc>
    <rc><c>Ta</c><c>   2</c></rc>
    <rc><c>Ta</c><c>   2</c></rc>
    <rc><c>Ta</c><c>   2</c></rc>
    <rc><c>Ta</c><c>   2</c></rc>
    <rc><c>Ta</c><c>   2</c></rc>
    <rc><c>V </c><c>   3</c></rc>
    <rc><c>V </c><c>   3</c></rc>
    <rc><c>V </c><c>   3</c></rc>
    <rc><c>V </c><c>   3</c></rc>
    <rc><c>V </c><c>   3</c></rc>
    <rc><c>V </c><c>   3</c></rc>
    <rc><c>V </c><c>   3</c></rc>
    <rc><c>N </c><c>   4</c></rc>
    <rc><c>N </c><c>   4</c></rc>
    <rc><c>N </c><c>   4</c></rc>
    <rc><c>N </c><c>   4</c></rc>
    <rc><c>N </c><c>   4</c></rc>
    <rc><c>N </c><c>   4</c></rc>
    <rc><c>N </c><c>   4</c></rc>
    <rc><c>N </c><c>   4</c></rc>
    <rc><c>N </c><c>   4</c></rc>
    <rc><c>N </c><c>   4</c></rc>
    <rc><c>N </c><c>   4</c></rc>
    <rc><c>N </c><c>   4</c></rc>
    <rc><c>N </c><c>   4</c></rc>
    <rc><c>C </c><c>   5</c></rc>
    <rc><c>C </c><c>   5</c></rc>
    <rc><c>C </c><c>   5</c></rc>
    <rc><c>C </c><c>   5</c></rc>
    <rc><c>C </c><c>   5</c></rc>
    <rc><c>C </c><c>   5</c></rc>
    <rc><c>C </c><c>   5</c></rc>
    <rc><c>C </c><c>   5</c></rc>
    <rc><c>C </c><c>   5</c></rc>
    <rc><c>C </c><c>   5</c></rc>
    <rc><c>C </c><c>   5</c></rc>
    <rc><c>C </c><c>   5</c></rc>
    <rc><c>C </c><c>   5</c></rc>
    <rc><c>C </c><c>   5</c></rc>
    <rc><c>C </c><c>   5</c></rc>
    <rc><c>C </c><c>   5</c></rc>
    <rc><c>C </c><c>   5</c></rc>
    <rc><c>C </c><c>   5</c></rc>
    <rc><c>C </c><c>   5</c></rc>
    <rc><c>Cr</c><c>   6</c></rc>
    <rc><c>Cr</c><c>   6</c></rc>
    <rc><c>Cr</c><c>   6</c></rc>
    <rc><c>Cr</c><c>   6</c></rc>
    <rc><c>Cr</c><c>   6</c></rc>
    <rc><c>Cr</c><c>   6</c></rc>
    <rc><c>W </c><c>   7</c></rc>
    <rc><c>W </c><c>   7</c></rc>
    <rc><c>W </c><c>   7</c></rc>
    <rc><c>W </c><c>   7</c></rc>
    <rc><c>W </c><c>   7</c></rc>
    <rc><c>W </c><c>   7</c></rc>
   </set>
  </array>
  <array name="atomtypes" >
   <dimension dim="1">type</dimension>
   <field type="int">atomspertype</field>
   <field type="string">element</field>
   <field>mass</field>
   <field>valence</field>
   <field type="string">pseudopotential</field>
   <set>
    <rc><c>   7</c><c>Nb</c><c>     92.91000000</c><c>     13.00000000</c><c> PAW_PBE Nb_sv 17Jan2003                </c></rc>
    <rc><c>   6</c><c>Ta</c><c>    180.94800000</c><c>     11.00000000</c><c> PAW_PBE Ta_pv 07Sep2000                </c></rc>
    <rc><c>   7</c><c>V </c><c>     50.94100000</c><c>     13.00000000</c><c> PAW_PBE V_sv 07Sep2000                 </c></rc>
    <rc><c>  13</c><c>N </c><c>     14.00100000</c><c>      5.00000000</c><c> PAW_PBE N 08Apr2002                    </c></rc>
    <rc><c>  19</c><c>C </c><c>     12.01100000</c><c>      4.00000000</c><c> PAW_PBE C 08Apr2002                    </c></rc>
    <rc><c>   6</c><c>Cr</c><c>     51.99600000</c><c>     12.00000000</c><c> PAW_PBE Cr_pv 07Sep2000                </c></rc>
    <rc><c>   6</c><c>W </c><c>    183.85000000</c><c>     12.00000000</c><c> PAW_PBE W_pv 06Sep2000                 </c></rc>
   </set>
  </array>
 </atominfo>
 <structure name="initialpos" >
  <crystal>
   <varray name="basis" >
    <v>       8.93249989       0.00000000       0.00000000 </v>
    <v>       0.00575300       9.05559834       0.00000000 </v>
    <v>       0.03210180      -0.01574346       8.93712807 </v>
   </varray>
   <i name="volume">    722.91652451 </i>
   <varray name="rec_basis" >
    <v>       0.11195074      -0.00007112      -0.00040225 </v>
    <v>       0.00000000       0.11042893       0.00019453 </v>
    <v>       0.00000000       0.00000000       0.11189277 </v>
   </varray>
  </crystal>
  <varray name="positions" >
   <v>       0.99688001       0.99204997       0.99924002 </v>
   <v>       0.25398003       0.99714995       0.24912000 </v>
   <v>       0.24803003       0.50165000       0.24955001 </v>
   <v>       0.50501006       0.49745998       0.99834003 </v>
   <v>       0.50479003       0.24631001       0.74710002 </v>
   <v>       0.99427992       0.50449999       0.49779000 </v>
   <v>       0.49950005       0.75481999       0.74817004 </v>
   <v>       0.99437004       0.23617001       0.26379999 </v>
   <v>       0.75718000       0.74102998       0.01100000 </v>
   <v>       0.00201000       0.25541000       0.73894001 </v>
   <v>       0.75307001       0.26163001       0.50533002 </v>
   <v>       0.99514004       0.74492004       0.74511997 </v>
   <v>       0.25679999       0.49462002       0.74545002 </v>
   <v>       0.24788999       0.24839000       0.99657997 </v>
   <v>       0.50833000       0.25676999       0.25376001 </v>
   <v>       0.74879004       0.98787999       0.26967001 </v>
   <v>       0.75719000       0.25603001       0.99591997 </v>
   <v>       0.24762001       0.74973999       0.99974006 </v>
   <v>       0.25272001       0.24823001       0.50015003 </v>
   <v>       0.24457999       0.75048999       0.49983999 </v>
   <v>       0.24982001       0.24942998       0.24825000 </v>
   <v>       0.26146999       0.99984002       0.99295996 </v>
   <v>       0.00281000       0.25024000       0.00130000 </v>
   <v>       0.75313998       0.24617000       0.25492002 </v>
   <v>       0.74767001       0.99748000       0.01202000 </v>
   <v>       0.50714994       0.99977000       0.24673000 </v>
   <v>       0.99051999       0.48088002       0.24100998 </v>
   <v>       0.50519005       0.76130999       0.00855000 </v>
   <v>       0.98896989       0.00202000       0.73708999 </v>
   <v>       0.75744996       0.24437997       0.74896999 </v>
   <v>       0.73632001       0.00417000       0.51063000 </v>
   <v>       0.50563996       0.23264999       0.49544997 </v>
   <v>       0.50008998       0.00061000       0.73471998 </v>
   <v>       0.99720000       0.99771992       0.25899999 </v>
   <v>       0.50427997       0.24673000       0.00262000 </v>
   <v>       0.25133999       0.74958002       0.24910999 </v>
   <v>       0.24328000       0.50072997       0.99510994 </v>
   <v>       0.99837005       0.74313996       0.00460000 </v>
   <v>       0.75633000       0.73891003       0.25767000 </v>
   <v>       0.75839004       0.50315998       0.00288000 </v>
   <v>       0.50700002       0.50333002       0.25878999 </v>
   <v>       0.24900999       0.25315000       0.74854000 </v>
   <v>       0.24446000       0.99823996       0.50287998 </v>
   <v>       0.99804009       0.24229999       0.50128003 </v>
   <v>       0.24177002       0.75340997       0.75018002 </v>
   <v>       0.25841001       0.50062002       0.50129001 </v>
   <v>       0.99000004       0.76215003       0.49746000 </v>
   <v>       0.99203996       0.50055999       0.75138002 </v>
   <v>       0.75036005       0.74888000       0.74756004 </v>
   <v>       0.74036002       0.50197000       0.50067003 </v>
   <v>       0.50575006       0.74958002       0.49720000 </v>
   <v>       0.50501003       0.50217998       0.73912003 </v>
   <v>       0.51588997       0.01358000       0.98075008 </v>
   <v>       0.99841994       0.50976998       0.98613004 </v>
   <v>       0.50379003       0.73926997       0.25905001 </v>
   <v>       0.23780002       0.01082000       0.74607998 </v>
   <v>       0.47957999       0.98308000       0.49717999 </v>
   <v>       0.74279003       0.97869994       0.76450995 </v>
   <v>       0.99864998       0.77573999       0.26102000 </v>
   <v>       0.73551001       0.51468004       0.26666001 </v>
   <v>       0.02362000       0.99783001       0.49557002 </v>
   <v>       0.50539000       0.52833005       0.49917999 </v>
   <v>       0.73876003       0.52828003       0.73814999 </v>
   <v>       0.75400003       0.72937999       0.49116997 </v>
  </varray>
 </structure>
 <calculation>
  <scstep>
   <time name="dav">   23.82   23.93</time>
   <time name="total">   23.87   23.98</time>
   <energy>
    <i name="alphaZ">   4271.87369500 </i>
    <i name="ewald"> -45858.44023209 </i>
    <i name="hartreedc">  -9809.88299084 </i>
    <i name="XCdc">   2100.24446483 </i>
    <i name="pawpsdc">  34636.47526417 </i>
    <i name="pawaedc"> -34763.93053701 </i>
    <i name="eentropy">     -0.09286463 </i>
    <i name="bandstr">   2241.42438878 </i>
    <i name="atom">  54499.53323535 </i>
    <i name="e_fr_energy">   7317.20442356 </i>
    <i name="e_wo_entrp">   7317.29728819 </i>
    <i name="e_0_energy">   7317.25085588 </i>
   </energy>
  </scstep>
  <scstep>
   <time name="dav">   24.90   24.97</time>
   <time name="total">   24.90   24.97</time>
   <energy>
    <i name="e_fr_energy">    342.90244853 </i>
    <i name="e_wo_entrp">    343.04751053 </i>
    <i name="e_0_energy">    342.97497953 </i>
   </energy>
  </scstep>
  <scstep>
   <time name="dav">   34.51   34.55</time>
   <time name="total">   34.51   34.55</time>
   <energy>
    <i name="e_fr_energy">   -658.14215102 </i>
    <i name="e_wo_entrp">   -657.99752581 </i>
    <i name="e_0_energy">   -658.06983841 </i>
   </energy>
  </scstep>
  <scstep>
   <time name="dav">   37.65   37.74</time>
   <time name="total">   37.66   37.74</time>
   <energy>
    <i name="e_fr_energy">   -775.52565546 </i>
    <i name="e_wo_entrp">   -775.37728290 </i>
    <i name="e_0_energy">   -775.45146918 </i>
   </energy>
  </scstep>
  <scstep>
   <time name="dav">   43.33   43.40</time>
   <time name="total">   43.61   43.70</time>
   <energy>
    <i name="e_fr_energy">   -791.21201489 </i>
    <i name="e_wo_entrp">   -791.05090606 </i>
    <i name="e_0_energy">   -791.13146047 </i>
   </energy>
  </scstep>
  <scstep>
   <time name="diag">    2.07    2.07</time>
   <time name="diis">   20.65   20.73</time>
   <time name="orth">    0.51    0.51</time>
   <time name="total">   23.53   23.62</time>
   <energy>
    <i name="e_fr_energy">   -941.92158043 </i>
    <i name="e_wo_entrp">   -941.75763203 </i>
    <i name="e_0_energy">   -941.83960623 </i>
   </energy>
  </scstep>
  <scstep>
   <time name="diag">    2.01    2.01</time>
   <time name="diis">   22.80   22.88</time>
   <time name="orth">    0.50    0.50</time>
   <time name="total">   25.62   25.70</time>
   <energy>
    <i name="e_fr_energy">   -658.72839520 </i>
    <i name="e_wo_entrp">   -658.52425257 </i>
    <i name="e_0_energy">   -658.62632389 </i>
   </energy>
  </scstep>
  <scstep>
   <time name="diag">    2.03    2.03</time>
   <time name="diis">   24.48   24.60</time>
   <time name="orth">    0.51    0.51</time>
   <time name="total">   27.32   27.45</time>
   <energy>
    <i name="e_fr_energy">   -668.16155576 </i>
    <i name="e_wo_entrp">   -667.97257979 </i>
    <i name="e_0_energy">   -668.06706777 </i>
   </energy>
  </scstep>
  <scstep>
   <time name="diag">    2.04    2.04</time>
   <time name="diis">   23.68   23.72</time>
   <time name="orth">    0.51    0.51</time>
   <time name="total">   26.53   26.57</time>
   <energy>
    <i name="e_fr_energy">   -660.17127587 </i>
    <i name="e_wo_entrp">   -659.97073964 </i>
    <i name="e_0_energy">   -660.07100775 </i>
   </energy>
  </scstep>
  <scstep>
   <time name="diag">    2.03    2.04</time>
   <time name="diis">   25.52   25.59</time>
   <time name="orth">    0.51    0.51</time>
   <time name="total">   28.36   28.45</time>
   <energy>
    <i name="e_fr_energy">   -645.22536832 </i>
    <i name="e_wo_entrp">   -644.97412865 </i>
    <i name="e_0_energy">   -645.09974849 </i>
   </energy>
  </scstep>
  <scstep>
   <time name="diag">    2.02    2.02</time>
   <time name="diis">   24.92   24.93</time>
   <time name="orth">    0.51    0.51</time>
   <time name="total">   27.74   27.76</time>
   <energy>
    <i name="e_fr_energy">   -644.76377351 </i>
    <i name="e_wo_entrp">   -644.50889106 </i>
    <i name="e_0_energy">   -644.63633228 </i>
   </energy>
  </scstep>
  <scstep>
   <time name="diag">    2.01    2.02</time>
   <time name="diis">   24.06   24.14</time>
   <time name="orth">    0.51    0.51</time>
   <time name="total">   26.89   26.97</time>
   <energy>
    <i name="e_fr_energy">   -643.52249809 </i>
    <i name="e_wo_entrp">   -643.27782298 </i>
    <i name="e_0_energy">   -643.40016053 </i>
   </energy>
  </scstep>
  <scstep>
   <time name="diag">    2.11    2.12</time>
   <time name="diis">   24.45   24.50</time>
   <time name="orth">    0.51    0.51</time>
   <time name="total">   27.37   27.44</time>
   <energy>
    <i name="e_fr_energy">   -643.36733550 </i>
    <i name="e_wo_entrp">   -643.09067531 </i>
    <i name="e_0_energy">   -643.22900540 </i>
   </energy>
  </scstep>
  <scstep>
   <time name="diag">    2.01    2.01</time>
   <time name="diis">   23.17   23.19</time>
   <time name="orth">    0.50    0.50</time>
   <time name="total">   25.99   26.01</time>
   <energy>
    <i name="e_fr_energy">   -643.77298595 </i>
    <i name="e_wo_entrp">   -643.50490651 </i>
    <i name="e_0_energy">   -643.63894623 </i>
   </energy>
  </scstep>
  <scstep>
   <time name="diag">    2.03    2.03</time>
   <time name="diis">   22.99   23.04</time>
   <time name="orth">    0.50    0.50</time>
   <time name="total">   25.82   25.88</time>
   <energy>
    <i name="e_fr_energy">   -642.36642700 </i>
    <i name="e_wo_entrp">   -642.10433609 </i>
    <i name="e_0_energy">   -642.23538155 </i>
   </energy>
  </scstep>
  <scstep>
   <time name="diag">    2.03    2.03</time>
   <time name="diis">   23.12   23.15</time>
   <time name="orth">    0.50    0.50</time>
   <time name="total">   25.96   25.99</time>
   <energy>
    <i name="e_fr_energy">   -642.06730032 </i>
    <i name="e_wo_entrp">   -641.79552764 </i>
    <i name="e_0_energy">   -641.93141398 </i>
   </energy>
  </scstep>
  <scstep>
   <time name="diag">    2.02    2.02</time>
   <time name="diis">   22.28   22.32</time>
   <time name="orth">    0.50    0.50</time>
   <time name="total">   25.10   25.15</time>
   <energy>
    <i name="e_fr_energy">   -642.32995500 </i>
    <i name="e_wo_entrp">   -642.07776888 </i>
    <i name="e_0_energy">   -642.20386194 </i>
   </energy>
  </scstep>
  <scstep>
   <time name="diag">    2.03    2.03</time>
   <time name="diis">   21.83   21.86</time>
   <time name="orth">    0.51    0.51</time>
   <time name="total">   24.68   24.71</time>
   <energy>
    <i name="e_fr_energy">   -641.73452220 </i>
    <i name="e_wo_entrp">   -641.45595849 </i>
    <i name="e_0_energy">   -641.59524035 </i>
   </energy>
  </scstep>
  <scstep>
   <time name="diag">    2.03    2.04</time>
   <time name="diis">   24.66   24.76</time>
   <time name="orth">    0.51    0.51</time>
   <time name="total">   27.50   27.61</time>
   <energy>
    <i name="e_fr_energy">   -641.76028394 </i>
    <i name="e_wo_entrp">   -641.48814379 </i>
    <i name="e_0_energy">   -641.62421386 </i>
   </energy>
  </scstep>
  <scstep>
   <time name="diag">    2.03    2.03</time>
   <time name="diis">   23.91   23.97</time>
   <time name="orth">    0.50    0.50</time>
   <time name="total">   26.75   26.81</time>
   <energy>
    <i name="e_fr_energy">   -641.75524681 </i>
    <i name="e_wo_entrp">   -641.47972950 </i>
    <i name="e_0_energy">   -641.61748815 </i>
   </energy>
  </scstep>
  <scstep>
   <time name="diag">    2.05    2.05</time>
   <time name="diis">   24.94   25.02</time>
   <time name="orth">    0.51    0.51</time>
   <time name="total">   27.81   27.89</time>
   <energy>
    <i name="e_fr_energy">   -641.70366985 </i>
    <i name="e_wo_entrp">   -641.42914892 </i>
    <i name="e_0_energy">   -641.56640939 </i>
   </energy>
  </scstep>
  <scstep>
   <time name="diag">    2.03    2.03</time>
   <time name="diis">   22.55   22.56</time>
   <time name="orth">    0.53    0.53</time>
   <time name="total">   25.43   25.44</time>
   <energy>
    <i name="e_fr_energy">   -641.73425638 </i>
    <i name="e_wo_entrp">   -641.46034779 </i>
    <i name="e_0_energy">   -641.59730208 </i>
   </energy>
  </scstep>
  <scstep>
   <time name="diag">    2.03    2.04</time>
   <time name="diis">   22.79   22.82</time>
   <time name="orth">    0.51    0.51</time>
   <time name="total">   25.64   25.68</time>
   <energy>
    <i name="e_fr_energy">   -641.69520604 </i>
    <i name="e_wo_entrp">   -641.41879190 </i>
    <i name="e_0_energy">   -641.55699897 </i>
   </energy>
  </scstep>
  <scstep>
   <time name="diag">    2.14    2.16</time>
   <time name="diis">   23.50   23.57</time>
   <time name="orth">    0.50    0.50</time>
   <time name="total">   26.45   26.55</time>
   <energy>
    <i name="e_fr_energy">   -641.69853170 </i>
    <i name="e_wo_entrp">   -641.42311018 </i>
    <i name="e_0_energy">   -641.56082094 </i>
   </energy>
  </scstep>
  <scstep>
   <time name="diag">    2.02    2.03</time>
   <time name="diis">   23.89   23.98</time>
   <time name="orth">    0.50    0.50</time>
   <time name="total">   26.72   26.82</time>
   <energy>
    <i name="e_fr_energy">   -641.69403392 </i>
    <i name="e_wo_entrp">   -641.41773800 </i>
    <i name="e_0_energy">   -641.55588596 </i>
   </energy>
  </scstep>
  <scstep>
   <time name="diag">    2.04    2.04</time>
   <time name="diis">   23.48   23.52</time>
   <time name="orth">    0.50    0.51</time>
   <time name="total">   26.33   26.38</time>
   <energy>
    <i name="e_fr_energy">   -641.69514454 </i>
    <i name="e_wo_entrp">   -641.42018065 </i>
    <i name="e_0_energy">   -641.55766259 </i>
   </energy>
  </scstep>
  <scstep>
   <time name="diag">    2.03    2.03</time>
   <time name="diis">   24.00   24.04</time>
   <time name="orth">    0.50    0.50</time>
   <time name="total">   26.85   26.88</time>
   <energy>
    <i name="e_fr_energy">   -641.69456621 </i>
    <i name="e_wo_entrp">   -641.41839803 </i>
    <i name="e_0_energy">   -641.55648212 </i>
   </energy>
  </scstep>
  <scstep>
   <time name="diag">    2.02    2.03</time>
   <time name="diis">   22.37   22.46</time>
   <time name="orth">    0.55    0.56</time>
   <time name="total">   25.26   25.36</time>
   <energy>
    <i name="e_fr_energy">   -641.69509474 </i>
    <i name="e_wo_entrp">   -641.41895817 </i>
    <i name="e_0_energy">   -641.55702646 </i>
   </energy>
  </scstep>
  <scstep>
   <time name="diag">    2.04    2.04</time>
   <time name="diis">   19.94   19.95</time>
   <time name="orth">    0.50    0.50</time>
   <time name="total">   22.79   22.81</time>
   <energy>
    <i name="e_fr_energy">   -641.69538760 </i>
    <i name="e_wo_entrp">   -641.41921736 </i>
    <i name="e_0_energy">   -641.55730248 </i>
   </energy>
  </scstep>
  <scstep>
   <time name="diag">    2.04    2.05</time>
   <time name="diis">   17.49   17.51</time>
   <time name="orth">    0.50    0.51</time>
   <time name="total">   20.35   20.38</time>
   <energy>
    <i name="e_fr_energy">   -641.69568810 </i>
    <i name="e_wo_entrp">   -641.41950672 </i>
    <i name="e_0_energy">   -641.55759741 </i>
   </energy>
  </scstep>
  <scstep>
   <time name="diag">    2.03    2.03</time>
   <time name="diis">   15.67   15.70</time>
   <time name="orth">    0.50    0.50</time>
   <time name="total">   18.51   18.54</time>
   <energy>
    <i name="e_fr_energy">   -641.69584919 </i>
    <i name="e_wo_entrp">   -641.41963974 </i>
    <i name="e_0_energy">   -641.55774447 </i>
   </energy>
  </scstep>
  <scstep>
   <time name="diag">    2.04    2.04</time>
   <time name="diis">   15.16   15.17</time>
   <time name="orth">    0.51    0.51</time>
   <time name="total">   18.01   18.02</time>
   <energy>
    <i name="e_fr_energy">   -641.69598474 </i>
    <i name="e_wo_entrp">   -641.41977930 </i>
    <i name="e_0_energy">   -641.55788202 </i>
   </energy>
  </scstep>
  <scstep>
   <time name="diag">    2.03    2.04</time>
   <time name="diis">   13.77   13.81</time>
   <time name="orth">    0.50    0.51</time>
   <time name="total">   16.62   16.67</time>
   <energy>
    <i name="e_fr_energy">   -641.69603579 </i>
    <i name="e_wo_entrp">   -641.41982526 </i>
    <i name="e_0_energy">   -641.55793053 </i>
   </energy>
  </scstep>
  <scstep>
   <time name="diag">    2.06    2.06</time>
   <time name="diis">   13.89   13.90</time>
   <time name="orth">    0.50    0.50</time>
   <time name="total">   16.76   16.78</time>
   <energy>
    <i name="e_fr_energy">   -641.69606912 </i>
    <i name="e_wo_entrp">   -641.41985857 </i>
    <i name="e_0_energy">   -641.55796384 </i>
   </energy>
  </scstep>
  <scstep>
   <time name="diag">    2.10    2.12</time>
   <time name="diis">   13.34   13.38</time>
   <time name="orth">    0.50    0.50</time>
   <time name="total">   16.26   16.31</time>
   <energy>
    <i name="e_fr_energy">   -641.69608398 </i>
    <i name="e_wo_entrp">   -641.41986940 </i>
    <i name="e_0_energy">   -641.55797669 </i>
   </energy>
  </scstep>
  <scstep>
   <time name="diag">    2.03    2.04</time>
   <time name="diis">   13.31   13.33</time>
   <time name="orth">    0.50    0.50</time>
   <time name="total">   16.16   16.19</time>
   <energy>
    <i name="e_fr_energy">   -641.69609495 </i>
    <i name="e_wo_entrp">   -641.41988132 </i>
    <i name="e_0_energy">   -641.55798814 </i>
   </energy>
  </scstep>
  <scstep>
   <time name="diag">    2.03    2.03</time>
   <time name="diis">   12.74   12.77</time>
   <time name="orth">    0.50    0.50</time>
   <time name="total">   15.30   15.34</time>
   <energy>
    <i name="alphaZ">   4271.87369500 </i>
    <i name="ewald"> -45858.44023209 </i>
    <i name="hartreedc">  -9098.28001962 </i>
    <i name="XCdc">   2078.93859396 </i>
    <i name="pawpsdc">  35002.65474224 </i>
    <i name="pawaedc"> -35195.40922631 </i>
    <i name="eentropy">     -0.27621294 </i>
    <i name="bandstr">  -6342.29067616 </i>
    <i name="atom">  54499.53323535 </i>
    <i name="e_fr_energy">   -641.69610057 </i>
    <i name="e_wo_entrp">   -641.41988763 </i>
    <i name="e_0_energy">   -641.55799410 </i>
   </energy>
  </scstep>
  <structure>
   <crystal>
    <varray name="basis" >
     <v>       8.93249989       0.00000000       0.00000000 </v>
     <v>       0.00575300       9.05559834       0.00000000 </v>
     <v>       0.03210180      -0.01574346       8.93712807 </v>
    </varray>
    <i name="volume">    722.91652451 </i>
    <varray name="rec_basis" >
     <v>       0.11195074      -0.00007112      -0.00040225 </v>
     <v>       0.00000000       0.11042893       0.00019453 </v>
     <v>       0.00000000       0.00000000       0.11189277 </v>
    </varray>
   </crystal>
   <varray name="positions" >
    <v>       0.99688001       0.99204997       0.99924002 </v>
    <v>       0.25398003       0.99714995       0.24912000 </v>
    <v>       0.24803003       0.50165000       0.24955001 </v>
    <v>       0.50501006       0.49745998       0.99834003 </v>
    <v>       0.50479003       0.24631001       0.74710002 </v>
    <v>       0.99427992       0.50449999       0.49779000 </v>
    <v>       0.49950005       0.75481999       0.74817004 </v>
    <v>       0.99437004       0.23617001       0.26379999 </v>
    <v>       0.75718000       0.74102998       0.01100000 </v>
    <v>       0.00201000       0.25541000       0.73894001 </v>
    <v>       0.75307001       0.26163001       0.50533002 </v>
    <v>       0.99514004       0.74492004       0.74511997 </v>
    <v>       0.25679999       0.49462002       0.74545002 </v>
    <v>       0.24788999       0.24839000       0.99657997 </v>
    <v>       0.50833000       0.25676999       0.25376001 </v>
    <v>       0.74879004       0.98787999       0.26967001 </v>
    <v>       0.75719000       0.25603001       0.99591997 </v>
    <v>       0.24762001       0.74973999       0.99974006 </v>
    <v>       0.25272001       0.24823001       0.50015003 </v>
    <v>       0.24457999       0.75048999       0.49983999 </v>
    <v>       0.24982001       0.24942998       0.24825000 </v>
    <v>       0.26146999       0.99984002       0.99295996 </v>
    <v>       0.00281000       0.25024000       0.00130000 </v>
    <v>       0.75313998       0.24617000       0.25492002 </v>
    <v>       0.74767001       0.99748000       0.01202000 </v>
    <v>       0.50714994       0.99977000       0.24673000 </v>
    <v>       0.99051999       0.48088002       0.24100998 </v>
    <v>       0.50519005       0.76130999       0.00855000 </v>
    <v>       0.98896989       0.00202000       0.73708999 </v>
    <v>       0.75744996       0.24437997       0.74896999 </v>
    <v>       0.73632001       0.00417000       0.51063000 </v>
    <v>       0.50563996       0.23264999       0.49544997 </v>
    <v>       0.50008998       0.00061000       0.73471998 </v>
    <v>       0.99720000       0.99771992       0.25899999 </v>
    <v>       0.50427997       0.24673000       0.00262000 </v>
    <v>       0.25133999       0.74958002       0.24910999 </v>
    <v>       0.24328000       0.50072997       0.99510994 </v>
    <v>       0.99837005       0.74313996       0.00460000 </v>
    <v>       0.75633000       0.73891003       0.25767000 </v>
    <v>       0.75839004       0.50315998       0.00288000 </v>
    <v>       0.50700002       0.50333002       0.25878999 </v>
    <v>       0.24900999       0.25315000       0.74854000 </v>
    <v>       0.24446000       0.99823996       0.50287998 </v>
    <v>       0.99804009       0.24229999       0.50128003 </v>
    <v>       0.24177002       0.75340997       0.75018002 </v>
    <v>       0.25841001       0.50062002       0.50129001 </v>
    <v>       0.99000004       0.76215003       0.49746000 </v>
    <v>       0.99203996       0.50055999       0.75138002 </v>
    <v>       0.75036005       0.74888000       0.74756004 </v>
    <v>       0.74036002       0.50197000       0.50067003 </v>
    <v>       0.50575006       0.74958002       0.49720000 </v>
    <v>       0.50501003       0.50217998       0.73912003 </v>
    <v>       0.51588997       0.01358000       0.98075008 </v>
    <v>       0.99841994       0.50976998       0.98613004 </v>
    <v>       0.50379003       0.73926997       0.25905001 </v>
    <v>       0.23780002       0.01082000       0.74607998 </v>
    <v>       0.47957999       0.98308000       0.49717999 </v>
    <v>       0.74279003       0.97869994       0.76450995 </v>
    <v>       0.99864998       0.77573999       0.26102000 </v>
    <v>       0.73551001       0.51468004       0.26666001 </v>
    <v>       0.02362000       0.99783001       0.49557002 </v>
    <v>       0.50539000       0.52833005       0.49917999 </v>
    <v>       0.73876003       0.52828003       0.73814999 </v>
    <v>       0.75400003       0.72937999       0.49116997 </v>
   </varray>
  </structure>
  <varray name="forces" >
   <v>       0.26301623       0.43249331      -0.08220870 </v>
   <v>       1.14051848      -0.26910234      -0.55734141 </v>
   <v>       0.85091832       0.24846022      -0.39232898 </v>
   <v>      -0.40303356      -0.96044759       0.28464098 </v>
   <v>      -0.75040047      -0.93113791       0.70129369 </v>
   <v>       0.69322151      -0.41336334       0.53140888 </v>
   <v>      -0.93977885       1.30188126       0.41220405 </v>
   <v>       0.17633232      -0.11330651      -1.08312000 </v>
   <v>      -0.76030754       0.91824157       0.03104535 </v>
   <v>       0.46603408      -0.41238616       0.99268406 </v>
   <v>      -1.16111494      -1.27209030      -0.38317959 </v>
   <v>       1.53469383       0.56448072       0.55334700 </v>
   <v>      -0.34160164       0.41258986       0.56236385 </v>
   <v>       0.40643281       0.18261505      -0.46288697 </v>
   <v>       0.13747008      -0.38955602      -0.49823981 </v>
   <v>      -0.77742717      -0.15260226       0.24143272 </v>
   <v>      -0.73053867       0.32402903      -0.31486689 </v>
   <v>      -0.63128427      -0.22707317      -0.06642319 </v>
   <v>      -0.10206829       0.08770532       0.38917811 </v>
   <v>       0.12219917      -0.09656975      -0.06383440 </v>
   <v>      -0.02051366      -0.02421469       0.05480117 </v>
   <v>      -0.27264828       0.00468478      -0.00470492 </v>
   <v>      -0.06015549      -0.44902817      -0.00369122 </v>
   <v>      -0.28285851      -0.12115000      -0.17049081 </v>
   <v>      -0.08441682       0.09419578      -0.60613703 </v>
   <v>      -0.01447938       0.07146352       0.41635735 </v>
   <v>       0.57138252       0.04240129       0.49557760 </v>
   <v>      -0.18904606      -0.37744230      -0.39334984 </v>
   <v>       0.02190824       0.07230456       0.86296550 </v>
   <v>      -0.34964339       0.01700589       0.36824741 </v>
   <v>       0.14333570       0.10765630      -0.79548856 </v>
   <v>      -0.33268998       0.00128371      -0.14431755 </v>
   <v>       0.34714597       0.05035175       0.73387552 </v>
   <v>      -0.33121803       0.68839062      -1.16027401 </v>
   <v>       0.08983229      -0.14200682       0.14684531 </v>
   <v>       0.08664630      -0.01019932      -0.01514543 </v>
   <v>       0.27760829      -0.03076055       0.36940765 </v>
   <v>       0.95446665      -0.01793188      -0.02205916 </v>
   <v>      -0.49224966       1.50124061      -0.99334354 </v>
   <v>      -0.17667687      -1.02115622      -0.03491627 </v>
   <v>      -1.39005620      -0.31791056      -0.90806924 </v>
   <v>       0.33412003      -0.77138605       0.03004781 </v>
   <v>       1.82886198      -0.22282790       0.42671474 </v>
   <v>       0.58777222       0.55034904      -0.06852512 </v>
   <v>       0.58094842       0.11841331       0.03701866 </v>
   <v>      -0.50627629       0.01876802      -0.53755863 </v>
   <v>       1.32105323      -0.63977889       0.55283282 </v>
   <v>       0.40409296      -0.01371207       0.01050744 </v>
   <v>      -0.46615164       1.70364749       0.41938586 </v>
   <v>       1.22829958      -1.12705964       0.39771350 </v>
   <v>      -0.94187654       1.50328210      -0.36148796 </v>
   <v>      -0.86363766      -0.35723000       1.09260021 </v>
   <v>       0.51877927       0.96179000      -0.42738384 </v>
   <v>       0.36039089       0.66698578      -0.48427656 </v>
   <v>      -0.16043497       0.01490204       0.05246308 </v>
   <v>       0.07283517       0.37447273       0.51817793 </v>
   <v>      -0.34885221      -0.07250707      -0.40672497 </v>
   <v>      -0.77918305      -0.73198796       0.53577099 </v>
   <v>       0.69517549      -0.12944150      -0.74231133 </v>
   <v>      -0.05586033      -1.19961034      -1.62692664 </v>
   <v>      -0.27202469       0.50645596       0.43794233 </v>
   <v>      -1.58675372      -0.71394088      -0.41382996 </v>
   <v>       0.61014156      -1.81498754       1.37739074 </v>
   <v>      -0.25037475       2.00136408       0.18920022 </v>
  </varray>
  <varray name="stress" >
   <v>    -249.88141201       7.72060237      -2.33888638 </v>
   <v>       7.72060267    -249.47598770       0.45796669 </v>
   <v>      -2.33888585       0.45796724    -240.74069595 </v>
  </varray>
  <energy>
   <i name="e_fr_energy">   -641.69610057 </i>
   <i name="e_wo_entrp">   -641.55799410 </i>
   <i name="e_0_energy">     -0.27621294 </i>
  </energy>
  <time name="totalsc">  979.81  982.60</time>
 </calculation>
 <calculation>
  <scstep>
   <time name="dav">   31.65   31.77</time>
   <time name="total">   31.96   32.09</time>
   <energy>
    <i name="alphaZ">   5556.54510473 </i>
    <i name="ewald"> -50066.35815958 </i>
    <i name="hartreedc">  -9928.95601865 </i>
    <i name="XCdc">   2276.27692385 </i>
    <i name="pawpsdc">  35002.64946774 </i>
    <i name="pawaedc"> -35195.40439355 </i>
    <i name="eentropy">     -0.10025209 </i>
    <i name="bandstr">  -3053.27518105 </i>
    <i name="atom">  54499.53323535 </i>
    <i name="e_fr_energy">   -909.08927325 </i>
    <i name="e_wo_entrp">   -908.98902116 </i>
    <i name="e_0_energy">   -909.03914721 </i>
   </energy>
  </scstep>
  <scstep>
   <time name="diag">    2.02    2.02</time>
   <time name="diis">   18.95   18.99</time>
   <time name="orth">    0.52    0.52</time>
   <time name="total">   21.79   21.84</time>
   <energy>
    <i name="e_fr_energy">   -875.86591492 </i>
    <i name="e_wo_entrp">   -875.75136901 </i>
    <i name="e_0_energy">   -875.80864197 </i>
   </energy>
  </scstep>
  <scstep>
   <time name="diag">    2.02    2.02</time>
   <time name="diis">   22.33   22.34</time>
   <time name="orth">    0.50    0.50</time>
   <time name="total">   25.15   25.17</time>
   <energy>
    <i name="e_fr_energy">   -709.76167085 </i>
    <i name="e_wo_entrp">   -709.62060377 </i>
    <i name="e_0_energy">   -709.69113731 </i>
   </energy>
  </scstep>
  <scstep>
   <time name="diag">    2.06    2.07</time>
   <time name="diis">   20.98   20.99</time>
   <time name="orth">    0.50    0.50</time>
   <time name="total">   23.84   23.87</time>
   <energy>
    <i name="e_fr_energy">   -666.48552077 </i>
    <i name="e_wo_entrp">   -666.34362702 </i>
    <i name="e_0_energy">   -666.41457389 </i>
   </energy>
  </scstep>
  <scstep>
   <time name="diag">    2.02    2.02</time>
   <time name="diis">   19.14   19.15</time>
   <time name="orth">    0.51    0.51</time>
   <time name="total">   21.96   21.98</time>
   <energy>
    <i name="e_fr_energy">   -650.65586840 </i>
    <i name="e_wo_entrp">   -650.52918095 </i>
    <i name="e_0_energy">   -650.59252468 </i>
   </energy>
  </scstep>
  <scstep>
   <time name="diag">    2.04    2.06</time>
   <time name="diis">   20.23   20.29</time>
   <time name="orth">    0.50    0.50</time>
   <time name="total">   23.07   23.15</time>
   <energy>
    <i name="e_fr_energy">   -632.76558244 </i>
    <i name="e_wo_entrp">   -632.59941835 </i>
    <i name="e_0_energy">   -632.68250040 </i>
   </energy>
  </scstep>
  <scstep>
   <time name="diag">    2.09    2.10</time>
   <time name="diis">   22.73   22.74</time>
   <time name="orth">    0.53    0.53</time>
   <time name="total">   25.68   25.69</time>
   <energy>
    <i name="e_fr_energy">   -634.29984138 </i>
    <i name="e_wo_entrp">   -634.12764266 </i>
    <i name="e_0_energy">   -634.21374202 </i>
   </energy>
  </scstep>
  <scstep>
   <time name="diag">    2.03    2.03</time>
   <time name="diis">   23.35   23.37</time>
   <time name="orth">    0.51    0.51</time>
   <time name="total">   26.21   26.24</time>
   <energy>
    <i name="e_fr_energy">   -631.06725910 </i>
    <i name="e_wo_entrp">   -630.88956611 </i>
    <i name="e_0_energy">   -630.97841261 </i>
   </energy>
  </scstep>
  <scstep>
   <time name="diag">    2.11    2.12</time>
   <time name="diis">   25.62   25.64</time>
   <time name="orth">    0.50    0.50</time>
   <time name="total">   28.54   28.57</time>
   <energy>
    <i name="e_fr_energy">   -631.09467537 </i>
    <i name="e_wo_entrp">   -630.91371214 </i>
    <i name="e_0_energy">   -631.00419376 </i>
   </energy>
  </scstep>
  <scstep>
   <time name="diag">    2.03    2.03</time>
   <time name="diis">   24.94   25.01</time>
   <time name="orth">    0.50    0.50</time>
   <time name="total">   27.77   27.85</time>
   <energy>
    <i name="e_fr_energy">   -630.94830445 </i>
    <i name="e_wo_entrp">   -630.77208318 </i>
    <i name="e_0_energy">   -630.86019381 </i>
   </energy>
  </scstep>
  <scstep>
   <time name="diag">    2.03    2.03</time>
   <time name="diis">   25.00   25.15</time>
   <time name="orth">    0.50    0.50</time>
   <time name="total">   27.83   27.99</time>
   <energy>
    <i name="e_fr_energy">   -631.03727626 </i>
    <i name="e_wo_entrp">   -630.85476171 </i>
    <i name="e_0_energy">   -630.94601899 </i>
   </energy>
  </scstep>
  <scstep>
   <time name="diag">    2.02    2.02</time>
   <time name="diis">   25.13   25.18</time>
   <time name="orth">    0.50    0.50</time>
   <time name="total">   27.96   28.01</time>
   <energy>
    <i name="e_fr_energy">   -631.05270649 </i>
    <i name="e_wo_entrp">   -630.87497723 </i>
    <i name="e_0_energy">   -630.96384186 </i>
   </energy>
  </scstep>
  <scstep>
   <time name="diag">    2.03    2.03</time>
   <time name="diis">   26.16   26.23</time>
   <time name="orth">    0.50    0.50</time>
   <time name="total">   29.00   29.08</time>
   <energy>
    <i name="e_fr_energy">   -631.07913476 </i>
    <i name="e_wo_entrp">   -630.90125464 </i>
    <i name="e_0_energy">   -630.99019470 </i>
   </energy>
  </scstep>
  <scstep>
   <time name="diag">    2.02    2.02</time>
   <time name="diis">   24.76   24.83</time>
   <time name="orth">    0.50    0.50</time>
   <time name="total">   27.59   27.66</time>
   <energy>
    <i name="e_fr_energy">   -631.15153778 </i>
    <i name="e_wo_entrp">   -630.97254235 </i>
    <i name="e_0_energy">   -631.06204006 </i>
   </energy>
  </scstep>
  <scstep>
   <time name="diag">    2.02    2.02</time>
   <time name="diis">   25.08   25.17</time>
   <time name="orth">    0.51    0.51</time>
   <time name="total">   27.91   28.01</time>
   <energy>
    <i name="e_fr_energy">   -631.10423893 </i>
    <i name="e_wo_entrp">   -630.92468849 </i>
    <i name="e_0_energy">   -631.01446371 </i>
   </energy>
  </scstep>
  <scstep>
   <time name="diag">    2.10    2.11</time>
   <time name="diis">   25.88   25.95</time>
   <time name="orth">    0.50    0.51</time>
   <time name="total">   28.78   28.87</time>
   <energy>
    <i name="e_fr_energy">   -631.11748436 </i>
    <i name="e_wo_entrp">   -630.93707781 </i>
    <i name="e_0_energy">   -631.02728109 </i>
   </energy>
  </scstep>
  <scstep>
   <time name="diag">    2.04    2.05</time>
   <time name="diis">   25.66   25.74</time>
   <time name="orth">    0.50    0.50</time>
   <time name="total">   28.51   28.60</time>
   <energy>
    <i name="e_fr_energy">   -631.11415632 </i>
    <i name="e_wo_entrp">   -630.93480275 </i>
    <i name="e_0_energy">   -631.02447954 </i>
   </energy>
  </scstep>
  <scstep>
   <time name="diag">    2.05    2.06</time>
   <time name="diis">   26.61   26.62</time>
   <time name="orth">    0.51    0.51</time>
   <time name="total">   29.48   29.50</time>
   <energy>
    <i name="e_fr_energy">   -631.11608296 </i>
    <i name="e_wo_entrp">   -630.93705983 </i>
    <i name="e_0_energy">   -631.02657140 </i>
   </energy>
  </scstep>
  <scstep>
   <time name="diag">    2.01    2.03</time>
   <time name="diis">   26.16   26.22</time>
   <time name="orth">    0.50    0.50</time>
   <time name="total">   28.98   29.06</time>
   <energy>
    <i name="e_fr_energy">   -631.11191918 </i>
    <i name="e_wo_entrp">   -630.93231606 </i>
    <i name="e_0_energy">   -631.02211762 </i>
   </energy>
  </scstep>
  <scstep>
   <time name="diag">    2.01    2.01</time>
   <time name="diis">   26.46   26.48</time>
   <time name="orth">    0.51    0.51</time>
   <time name="total">   29.28   29.31</time>
   <energy>
    <i name="e_fr_energy">   -631.11217291 </i>
    <i name="e_wo_entrp">   -630.93245581 </i>
    <i name="e_0_energy">   -631.02231436 </i>
   </energy>
  </scstep>
  <scstep>
   <time name="diag">    2.03    2.03</time>
   <time name="diis">   26.25   26.37</time>
   <time name="orth">    0.51    0.51</time>
   <time name="total">   29.08   29.21</time>
   <energy>
    <i name="e_fr_energy">   -631.11277226 </i>
    <i name="e_wo_entrp">   -630.93325678 </i>
    <i name="e_0_energy">   -631.02301452 </i>
   </energy>
  </scstep>
  <scstep>
   <time name="diag">    2.02    2.02</time>
   <time name="diis">   26.63   26.66</time>
   <time name="orth">    0.50    0.50</time>
   <time name="total">   29.45   29.49</time>
   <energy>
    <i name="e_fr_energy">   -631.11341351 </i>
    <i name="e_wo_entrp">   -630.93375542 </i>
    <i name="e_0_energy">   -631.02358446 </i>
   </energy>
  </scstep>
  <scstep>
   <time name="diag">    2.02    2.02</time>
   <time name="diis">   25.76   25.86</time>
   <time name="orth">    0.52    0.52</time>
   <time name="total">   28.60   28.71</time>
   <energy>
    <i name="e_fr_energy">   -631.11394809 </i>
    <i name="e_wo_entrp">   -630.93443053 </i>
    <i name="e_0_energy">   -631.02418931 </i>
   </energy>
  </scstep>
  <scstep>
   <time name="diag">    2.02    2.02</time>
   <time name="diis">   25.12   25.15</time>
   <time name="orth">    0.50    0.50</time>
   <time name="total">   27.94   27.97</time>
   <energy>
    <i name="e_fr_energy">   -631.11423760 </i>
    <i name="e_wo_entrp">   -630.93453385 </i>
    <i name="e_0_energy">   -631.02438573 </i>
   </energy>
  </scstep>
  <scstep>
   <time name="diag">    2.04    2.04</time>
   <time name="diis">   23.71   23.80</time>
   <time name="orth">    0.50    0.50</time>
   <time name="total">   26.55   26.64</time>
   <energy>
    <i name="e_fr_energy">   -631.11441040 </i>
    <i name="e_wo_entrp">   -630.93476873 </i>
    <i name="e_0_energy">   -631.02458956 </i>
   </energy>
  </scstep>
  <scstep>
   <time name="diag">    2.03    2.03</time>
   <time name="diis">   22.21   22.22</time>
   <time name="orth">    0.50    0.50</time>
   <time name="total">   25.05   25.07</time>
   <energy>
    <i name="e_fr_energy">   -631.11456460 </i>
    <i name="e_wo_entrp">   -630.93490904 </i>
    <i name="e_0_energy">   -631.02473682 </i>
   </energy>
  </scstep>
  <scstep>
   <time name="diag">    2.05    2.06</time>
   <time name="diis">   20.28   20.33</time>
   <time name="orth">    0.50    0.50</time>
   <time name="total">   23.15   23.21</time>
   <energy>
    <i name="e_fr_energy">   -631.11466349 </i>
    <i name="e_wo_entrp">   -630.93502776 </i>
    <i name="e_0_energy">   -631.02484562 </i>
   </energy>
  </scstep>
  <scstep>
   <time name="diag">    2.04    2.04</time>
   <time name="diis">   20.72   20.76</time>
   <time name="orth">    0.51    0.51</time>
   <time name="total">   23.60   23.65</time>
   <energy>
    <i name="e_fr_energy">   -631.11474326 </i>
    <i name="e_wo_entrp">   -630.93509936 </i>
    <i name="e_0_energy">   -631.02492131 </i>
   </energy>
  </scstep>
  <scstep>
   <time name="diag">    2.06    2.06</time>
   <time name="diis">   20.32   20.34</time>
   <time name="orth">    0.51    0.51</time>
   <time name="total">   23.21   23.24</time>
   <energy>
    <i name="e_fr_energy">   -631.11478801 </i>
    <i name="e_wo_entrp">   -630.93514369 </i>
    <i name="e_0_energy">   -631.02496585 </i>
   </energy>
  </scstep>
  <scstep>
   <time name="diag">    2.03    2.03</time>
   <time name="diis">   19.81   19.85</time>
   <time name="orth">    0.51    0.51</time>
   <time name="total">   22.65   22.70</time>
   <energy>
    <i name="e_fr_energy">   -631.11481509 </i>
    <i name="e_wo_entrp">   -630.93516903 </i>
    <i name="e_0_energy">   -631.02499206 </i>
   </energy>
  </scstep>
  <scstep>
   <time name="diag">    2.02    2.02</time>
   <time name="diis">   18.90   18.91</time>
   <time name="orth">    0.50    0.50</time>
   <time name="total">   21.72   21.74</time>
   <energy>
    <i name="e_fr_energy">   -631.11482986 </i>
    <i name="e_wo_entrp">   -630.93518525 </i>
    <i name="e_0_energy">   -631.02500756 </i>
   </energy>
  </scstep>
  <scstep>
   <time name="diag">    2.03    2.03</time>
   <time name="diis">   17.86   17.88</time>
   <time name="orth">    0.51    0.51</time>
   <time name="total">   20.72   20.75</time>
   <energy>
    <i name="e_fr_energy">   -631.11484083 </i>
    <i name="e_wo_entrp">   -630.93519619 </i>
    <i name="e_0_energy">   -631.02501851 </i>
   </energy>
  </scstep>
  <scstep>
   <time name="diag">    2.06    2.08</time>
   <time name="diis">   16.65   16.70</time>
   <time name="orth">    0.55    0.56</time>
   <time name="total">   19.29   19.38</time>
   <energy>
    <i name="alphaZ">   5556.54510473 </i>
    <i name="ewald"> -50066.35815958 </i>
    <i name="hartreedc">  -7687.72446498 </i>
    <i name="XCdc">   2153.12641997 </i>
    <i name="pawpsdc">  38108.65321264 </i>
    <i name="pawaedc"> -38312.93604619 </i>
    <i name="eentropy">     -0.17964525 </i>
    <i name="bandstr">  -4881.77450402 </i>
    <i name="atom">  54499.53323535 </i>
    <i name="e_fr_energy">   -631.11484733 </i>
    <i name="e_wo_entrp">   -630.93520208 </i>
    <i name="e_0_energy">   -631.02502470 </i>
   </energy>
  </scstep>
  <structure>
   <crystal>
    <varray name="basis" >
     <v>       8.17333562       0.02345595      -0.00710577 </v>
     <v>       0.02904325       8.28723586       0.00140595 </v>
     <v>       0.02222271      -0.01293125       8.20532725 </v>
    </varray>
    <i name="volume">    555.77846063 </i>
    <varray name="rec_basis" >
     <v>       0.12235001      -0.00042873      -0.00033204 </v>
     <v>      -0.00034613       0.12066868       0.00019111 </v>
     <v>       0.00010601      -0.00002105       0.12187172 </v>
    </varray>
   </crystal>
   <varray name="positions" >
    <v>       0.99830062       0.99435325       0.99879625 </v>
    <v>       0.26015148       0.99571111       0.24611146 </v>
    <v>       0.25263243       0.50296997       0.24743221 </v>
    <v>       0.50283113       0.49234598       0.99987652 </v>
    <v>       0.50072685       0.24135606       0.75088560 </v>
    <v>       0.99801498       0.50230283       0.50065855 </v>
    <v>       0.49441203       0.76175948       0.75039512 </v>
    <v>       0.99534378       0.23555622       0.25795330 </v>
    <v>       0.75306997       0.74592209       0.01116758 </v>
    <v>       0.00450911       0.25322238       0.74429852 </v>
    <v>       0.74681086       0.25484950       0.50326162 </v>
    <v>       0.00341595       0.74793243       0.74810694 </v>
    <v>       0.25494274       0.49682332       0.74848567 </v>
    <v>       0.25009341       0.24935851       0.99408130 </v>
    <v>       0.50908346       0.25469000       0.25107051 </v>
    <v>       0.74458715       0.98706929       0.27097327 </v>
    <v>       0.75324950       0.25775328       0.99422032 </v>
    <v>       0.24421264       0.74852966       0.99938150 </v>
    <v>       0.25216090       0.24870090       0.50225082 </v>
    <v>       0.24524153       0.74997492       0.49949541 </v>
    <v>       0.24970824       0.24930149       0.24854581 </v>
    <v>       0.25999755       0.99986493       0.99293457 </v>
    <v>       0.00248672       0.24784782       0.00128007 </v>
    <v>       0.75161604       0.24552298       0.25399971 </v>
    <v>       0.74722553       0.99797612       0.00874807 </v>
    <v>       0.50706341       0.00015462       0.24897750 </v>
    <v>       0.99359616       0.48111056       0.24368511 </v>
    <v>       0.50417798       0.75929552       0.00642670 </v>
    <v>       0.98907121       0.00241329       0.74174828 </v>
    <v>       0.75555440       0.24447403       0.75095779 </v>
    <v>       0.73710921       0.00473606       0.50633595 </v>
    <v>       0.50384596       0.23265547       0.49467094 </v>
    <v>       0.50195043       0.00088513       0.73868144 </v>
    <v>       0.99543131       0.00137635       0.25273683 </v>
    <v>       0.50476277       0.24597485       0.00341267 </v>
    <v>       0.25180828       0.74952554       0.24902824 </v>
    <v>       0.24477225       0.50056957       0.99710400 </v>
    <v>       0.00352542       0.74304422       0.00448092 </v>
    <v>       0.75368558       0.74689839       0.25230792 </v>
    <v>       0.75744002       0.49771956       0.00269152 </v>
    <v>       0.49951131       0.50162786       0.25388823 </v>
    <v>       0.25081657       0.24904081       0.74870220 </v>
    <v>       0.25432981       0.99705687       0.50518338 </v>
    <v>       0.00121397       0.24523127       0.50091013 </v>
    <v>       0.24490648       0.75404115       0.75037984 </v>
    <v>       0.25568608       0.50071496       0.49838826 </v>
    <v>       0.99712625       0.75874687       0.50044419 </v>
    <v>       0.99422223       0.50048704       0.75143674 </v>
    <v>       0.74782848       0.75795992       0.74982389 </v>
    <v>       0.74698997       0.49596946       0.50281689 </v>
    <v>       0.50066503       0.75758519       0.49524869 </v>
    <v>       0.50032572       0.50028714       0.74501789 </v>
    <v>       0.51869679       0.01869981       0.97844306 </v>
    <v>       0.00037345       0.51331873       0.98351591 </v>
    <v>       0.50292248       0.73934985       0.25933321 </v>
    <v>       0.23818205       0.01281982       0.74887711 </v>
    <v>       0.47770405       0.98268991       0.49498449 </v>
    <v>       0.73857393       0.97480538       0.76740205 </v>
    <v>       0.00241933       0.77504344       0.25701300 </v>
    <v>       0.73524401       0.50827398       0.25787785 </v>
    <v>       0.02214061       0.00053221       0.49793403 </v>
    <v>       0.49683074       0.52452273       0.49694614 </v>
    <v>       0.74203479       0.51862381       0.74558515 </v>
    <v>       0.75263727       0.74004380       0.49219127 </v>
   </varray>
  </structure>
  <varray name="forces" >
   <v>       0.96262790       0.94716548      -0.91741036 </v>
   <v>       0.80935193       0.68730582      -0.57271060 </v>
   <v>      -0.57565897      -0.42072383      -0.45947203 </v>
   <v>      -0.77800107       0.12910829       0.37140142 </v>
   <v>      -0.17151674      -0.13429630       0.12451304 </v>
   <v>       1.35840460      -0.55352926      -0.08451040 </v>
   <v>      -0.83470141       0.07954698       0.64063137 </v>
   <v>       0.92162489       1.24957821      -2.25597380 </v>
   <v>      -0.59091176       1.02869296      -1.47945935 </v>
   <v>      -0.18548805      -0.87122299       2.14459926 </v>
   <v>      -0.11110760      -1.86066851      -0.16282811 </v>
   <v>      -0.32168492       1.05841054       1.23202128 </v>
   <v>      -1.46858956       0.46240444       0.43716830 </v>
   <v>       0.55826767       0.09382073       0.07678036 </v>
   <v>      -0.46878340      -0.80226694      -0.67201437 </v>
   <v>      -0.73369121       0.89109039      -0.85137825 </v>
   <v>      -0.50601759      -0.59400704       0.29121273 </v>
   <v>       0.44128987      -0.04198288       0.18345474 </v>
   <v>       0.32864199       0.01026100      -0.12311767 </v>
   <v>       0.56354659      -0.19796305      -0.10765655 </v>
   <v>       1.17665683      -0.01980647      -0.08916113 </v>
   <v>       0.91195491      -0.14405133      -0.67216870 </v>
   <v>      -0.05467794       0.96700617       0.11640167 </v>
   <v>      -1.65909047      -0.55947507      -1.98225596 </v>
   <v>      -0.40253143       1.30663578       0.06907422 </v>
   <v>       0.80180341      -0.10610933      -0.38404103 </v>
   <v>       0.34357598       2.04631643      -0.74032010 </v>
   <v>      -1.74237496       0.46573950       0.40636398 </v>
   <v>      -0.48649841      -0.02760333       0.89068256 </v>
   <v>      -0.64257807      -0.21902160       1.30707857 </v>
   <v>       0.46983998      -0.76983121       0.78712910 </v>
   <v>      -2.05637152       0.38564029      -0.44407549 </v>
   <v>      -0.42359748       0.31221573       0.31193055 </v>
   <v>      -0.47086653       0.29042442      -0.86138196 </v>
   <v>      -0.36399700      -0.61711859       1.14968622 </v>
   <v>       1.48097801      -0.16514557      -0.18375709 </v>
   <v>      -0.53467307      -0.18079517       0.46537973 </v>
   <v>       0.92821585      -0.38786229       0.24758083 </v>
   <v>      -1.38029903       1.35498235      -0.07269310 </v>
   <v>       0.88122027      -1.43690318       0.12693172 </v>
   <v>      -1.44287078      -0.47418393      -1.01666652 </v>
   <v>       0.72246381      -1.06595817       0.07787066 </v>
   <v>       1.78813010       0.14149190       0.94163242 </v>
   <v>       1.02319839       1.06284760      -0.01582805 </v>
   <v>       1.26410849       1.13693677       0.11841544 </v>
   <v>      -1.32891994      -0.34090236      -0.30149576 </v>
   <v>       1.60150642      -1.09042431       0.26314469 </v>
   <v>       0.67895105      -0.01040965       0.51910108 </v>
   <v>       0.11568187      -0.10334878      -0.11051525 </v>
   <v>      -0.03865337       0.62840589      -0.29999644 </v>
   <v>      -1.51156900       1.50485287      -0.38385844 </v>
   <v>      -0.19460603      -0.21967821       0.50700455 </v>
   <v>      -0.38547900      -0.28329462       0.36846529 </v>
   <v>       0.52880003      -0.70073723       0.47983183 </v>
   <v>      -0.55627616       1.01157407      -0.84112791 </v>
   <v>       0.24916492      -0.60757841       1.00854580 </v>
   <v>       1.21644419       1.06009757      -0.97029919 </v>
   <v>      -0.51340677       1.98240543       0.51596294 </v>
   <v>       0.72404171      -3.68242673      -1.50832524 </v>
   <v>       1.54325367      -2.11827403      -1.89445051 </v>
   <v>      -2.10930016       1.00796931       0.47284125 </v>
   <v>       0.24306909      -2.71646465       0.10864607 </v>
   <v>       1.11456494      -1.93781752       2.47748275 </v>
   <v>      -0.70658998       2.15895562       1.21998297 </v>
  </varray>
  <varray name="stress" >
   <v>     768.77909827      -0.49879203       4.29451145 </v>
   <v>      -0.49879458     693.52968253      -0.38307685 </v>
   <v>       4.29450946      -0.38307757     744.83642998 </v>
  </varray>
  <energy>
   <i name="e_fr_energy">   -631.11484733 </i>
   <i name="e_wo_entrp">   -631.02502470 </i>
   <i name="e_0_energy">     -0.17964525 </i>
  </energy>
  <time name="totalsc">  911.22  913.34</time>
 </calculation>
 <calculation>
  <scstep>
   <time name="dav">   30.93   31.00</time>
   <time name="total">   31.24   31.31</time>
   <energy>
    <i name="alphaZ">   4739.81301703 </i>
    <i name="ewald"> -47495.93502531 </i>
    <i name="hartreedc">  -7271.32637313 </i>
    <i name="XCdc">   2038.91159745 </i>
    <i name="pawpsdc">  38108.72187090 </i>
    <i name="pawaedc"> -38312.96498566 </i>
    <i name="eentropy">     -0.21250364 </i>
    <i name="bandstr">  -7098.16553626 </i>
    <i name="atom">  54499.53323535 </i>
    <i name="e_fr_energy">   -791.62470325 </i>
    <i name="e_wo_entrp">   -791.41219962 </i>
    <i name="e_0_energy">   -791.51845144 </i>
   </energy>
  </scstep>
  <scstep>
   <time name="diag">    2.03    2.03</time>
   <time name="diis">   22.68   22.76</time>
   <time name="orth">    0.50    0.50</time>
   <time name="total">   25.53   25.60</time>
   <energy>
    <i name="e_fr_energy">  -1254.61179262 </i>
    <i name="e_wo_entrp">  -1254.50478677 </i>
    <i name="e_0_energy">  -1254.55828970 </i>
   </energy>
  </scstep>
  <scstep>
   <time name="diag">    2.02    2.02</time>
   <time name="diis">   22.90   23.01</time>
   <time name="orth">    0.50    0.50</time>
   <time name="total">   25.73   25.84</time>
   <energy>
    <i name="e_fr_energy">   -737.21305518 </i>
    <i name="e_wo_entrp">   -737.05875746 </i>
    <i name="e_0_energy">   -737.13590632 </i>
   </energy>
  </scstep>
  <scstep>
   <time name="diag">    2.04    2.04</time>
   <time name="diis">   19.17   19.18</time>
   <time name="orth">    0.50    0.50</time>
   <time name="total">   22.00   22.03</time>
   <energy>
    <i name="e_fr_energy">   -684.47870754 </i>
    <i name="e_wo_entrp">   -684.32708789 </i>
    <i name="e_0_energy">   -684.40289772 </i>
   </energy>
  </scstep>
  <scstep>
   <time name="diag">    2.04    2.04</time>
   <time name="diis">   21.53   21.57</time>
   <time name="orth">    0.50    0.50</time>
   <time name="total">   24.36   24.41</time>
   <energy>
    <i name="e_fr_energy">   -658.91172003 </i>
    <i name="e_wo_entrp">   -658.65091092 </i>
    <i name="e_0_energy">   -658.78131547 </i>
   </energy>
  </scstep>
  <scstep>
   <time name="diag">    2.03    2.03</time>
   <time name="diis">   22.16   22.18</time>
   <time name="orth">    0.50    0.50</time>
[...]
      </set>
     </set>
    </set>
   </array>
  </eigenvalues>
  <separator name="orbital magnetization" >
   <v name="MAGDIPOLOUT">      0.00000000      0.00000000      0.00000000</v>
  </separator>
  <dos>
   <i name="efermi">      9.53128776 </i>
   <total>
    <array>
     <dimension dim="1">gridpoints</dimension>
     <dimension dim="2">spin</dimension>
     <field>energy</field>
     <field>total</field>
     <field>integrated</field>
     <set>
      <set comment="spin 1">
       <r>   -58.9299     0.0000     0.0000 </r>
       <r>   -58.6808     0.0000     0.0000 </r>
       <r>   -58.4317     0.0000     0.0000 </r>
       <r>   -58.1826     0.0000     0.0000 </r>
       <r>   -57.9334     0.0000     0.0000 </r>
       <r>   -57.6843     0.0000     0.0000 </r>
       <r>   -57.4352     0.0000     0.0000 </r>
       <r>   -57.1861     0.0000     0.0000 </r>
       <r>   -56.9370     0.0000     0.0000 </r>
       <r>   -56.6878     0.0000     0.0000 </r>
       <r>   -56.4387     0.0000     0.0000 </r>
       <r>   -56.1896     0.0000     0.0000 </r>
       <r>   -55.9405     0.0000     0.0000 </r>
       <r>   -55.6913     0.1610     0.0401 </r>
       <r>   -55.4422    21.7125     5.4491 </r>
       <r>   -55.1931    33.3746    13.7635 </r>
       <r>   -54.9440     0.9494    14.0000 </r>
       <r>   -54.6949     0.0000    14.0000 </r>
       <r>   -54.4457     0.0000    14.0000 </r>
       <r>   -54.1966     0.0000    14.0000 </r>
       <r>   -53.9475     0.0000    14.0000 </r>
       <r>   -53.6984     0.0000    14.0000 </r>
       <r>   -53.4493     0.0000    14.0000 </r>
       <r>   -53.2001     0.0000    14.0000 </r>
       <r>   -52.9510     0.0000    14.0000 </r>
       <r>   -52.7019     0.0000    14.0000 </r>
       <r>   -52.4528     0.0000    14.0000 </r>
       <r>   -52.2036     0.0000    14.0000 </r>
       <r>   -51.9545     0.0000    14.0000 </r>
       <r>   -51.7054     0.0000    14.0000 </r>
       <r>   -51.4563     0.0000    14.0000 </r>
       <r>   -51.2072     0.0000    14.0000 </r>
       <r>   -50.9580     0.0000    14.0000 </r>
       <r>   -50.7089     0.0000    14.0000 </r>
       <r>   -50.4598     0.0000    14.0000 </r>
       <r>   -50.2107     0.0000    14.0000 </r>
       <r>   -49.9616     0.0000    14.0000 </r>
       <r>   -49.7124     0.0000    14.0000 </r>
       <r>   -49.4633     0.0000    14.0000 </r>
       <r>   -49.2142     0.0000    14.0000 </r>
       <r>   -48.9651     0.0000    14.0000 </r>
       <r>   -48.7159     0.0000    14.0000 </r>
       <r>   -48.4668     0.0000    14.0000 </r>
       <r>   -48.2177     0.0000    14.0000 </r>
       <r>   -47.9686     0.0000    14.0000 </r>
       <r>   -47.7195     0.0000    14.0000 </r>
       <r>   -47.4703     0.0000    14.0000 </r>
       <r>   -47.2212     0.0000    14.0000 </r>
       <r>   -46.9721     0.0000    14.0000 </r>
       <r>   -46.7230     0.0004    14.0001 </r>
       <r>   -46.4739     4.4915    15.1190 </r>
       <r>   -46.2247    40.5844    25.2295 </r>
       <r>   -45.9756    11.0930    27.9929 </r>
       <r>   -45.7265     0.0283    28.0000 </r>
       <r>   -45.4774     0.0000    28.0000 </r>
       <r>   -45.2282     0.0000    28.0000 </r>
       <r>   -44.9791     0.0000    28.0000 </r>
       <r>   -44.7300     0.0000    28.0000 </r>
       <r>   -44.4809     0.0000    28.0000 </r>
       <r>   -44.2318     0.0000    28.0000 </r>
       <r>   -43.9826     0.0000    28.0000 </r>
       <r>   -43.7335     0.0000    28.0000 </r>
       <r>   -43.4844     0.0000    28.0000 </r>
       <r>   -43.2353     0.0000    28.0000 </r>
       <r>   -42.9862     0.0000    28.0000 </r>
       <r>   -42.7370     0.0000    28.0000 </r>
       <r>   -42.4879     0.0000    28.0000 </r>
       <r>   -42.2388     0.0000    28.0000 </r>
       <r>   -41.9897     0.0000    28.0000 </r>
       <r>   -41.7405     0.0000    28.0000 </r>
       <r>   -41.4914     0.0000    28.0000 </r>
       <r>   -41.2423     0.0000    28.0000 </r>
       <r>   -40.9932     0.0000    28.0000 </r>
       <r>   -40.7441     0.0000    28.0000 </r>
       <r>   -40.4949     0.0000    28.0000 </r>
       <r>   -40.2458     0.0000    28.0000 </r>
       <r>   -39.9967     0.0000    28.0000 </r>
       <r>   -39.7476     0.0000    28.0000 </r>
       <r>   -39.4985     0.0000    28.0000 </r>
       <r>   -39.2493     0.0000    28.0000 </r>
       <r>   -39.0002     0.0000    28.0000 </r>
       <r>   -38.7511     0.0000    28.0000 </r>
       <r>   -38.5020     0.0000    28.0000 </r>
       <r>   -38.2528     0.0000    28.0000 </r>
       <r>   -38.0037     0.0000    28.0000 </r>
       <r>   -37.7546     0.0000    28.0000 </r>
       <r>   -37.5055     0.0000    28.0000 </r>
       <r>   -37.2564     0.0000    28.0000 </r>
       <r>   -37.0072     0.0000    28.0000 </r>
       <r>   -36.7581     0.0000    28.0000 </r>
       <r>   -36.5090     0.0000    28.0000 </r>
       <r>   -36.2599     0.0000    28.0000 </r>
       <r>   -36.0108     0.0000    28.0000 </r>
       <r>   -35.7616     0.0000    28.0000 </r>
       <r>   -35.5125     0.0000    28.0000 </r>
       <r>   -35.2634     0.0000    28.0000 </r>
       <r>   -35.0143     0.0000    28.0000 </r>
       <r>   -34.7651     0.0000    28.0000 </r>
       <r>   -34.5160     0.2465    28.0614 </r>
       <r>   -34.2669    13.5269    31.4313 </r>
       <r>   -34.0178    85.7561    52.7949 </r>
       <r>   -33.7687    44.7043    63.9317 </r>
       <r>   -33.5195     0.2740    64.0000 </r>
       <r>   -33.2704     0.0000    64.0000 </r>
       <r>   -33.0213     0.0000    64.0000 </r>
       <r>   -32.7722     0.0000    64.0000 </r>
       <r>   -32.5231     0.0000    64.0000 </r>
       <r>   -32.2739     0.0000    64.0000 </r>
       <r>   -32.0248     0.0000    64.0000 </r>
       <r>   -31.7757     0.0000    64.0000 </r>
       <r>   -31.5266     0.0000    64.0000 </r>
       <r>   -31.2774     0.0000    64.0000 </r>
       <r>   -31.0283     0.0000    64.0000 </r>
       <r>   -30.7792     0.0000    64.0000 </r>
       <r>   -30.5301     0.0000    64.0000 </r>
       <r>   -30.2810     0.0001    64.0000 </r>
       <r>   -30.0318     3.1574    64.7866 </r>
       <r>   -29.7827    63.2403    80.5411 </r>
       <r>   -29.5336    91.8479   103.4224 </r>
       <r>   -29.2845   110.8058   131.0265 </r>
       <r>   -29.0353    43.5143   141.8668 </r>
       <r>   -28.7862     0.5345   142.0000 </r>
       <r>   -28.5371     0.0000   142.0000 </r>
       <r>   -28.2880     0.0000   142.0000 </r>
       <r>   -28.0389     0.0000   142.0000 </r>
       <r>   -27.7897     0.0000   142.0000 </r>
       <r>   -27.5406     0.0000   142.0000 </r>
       <r>   -27.2915     0.0000   142.0000 </r>
       <r>   -27.0424     0.0000   142.0000 </r>
       <r>   -26.7933     0.0000   142.0000 </r>
       <r>   -26.5441     0.0061   142.0015 </r>
       <r>   -26.2950     6.4531   143.6091 </r>
       <r>   -26.0459    37.9998   153.0757 </r>
       <r>   -25.7968    50.3507   165.6191 </r>
       <r>   -25.5476    29.4987   172.9679 </r>
       <r>   -25.2985    19.9959   177.9493 </r>
       <r>   -25.0494     0.2035   178.0000 </r>
       <r>   -24.8003     0.0000   178.0000 </r>
       <r>   -24.5512     0.0000   178.0000 </r>
       <r>   -24.3020     0.0000   178.0000 </r>
       <r>   -24.0529     0.0000   178.0000 </r>
       <r>   -23.8038     0.0000   178.0000 </r>
       <r>   -23.5547     0.0000   178.0000 </r>
       <r>   -23.3056     0.0000   178.0000 </r>
       <r>   -23.0564     0.0001   178.0000 </r>
       <r>   -22.8073     2.2985   178.5726 </r>
       <r>   -22.5582    62.6815   194.1879 </r>
       <r>   -22.3091    85.3849   215.4591 </r>
       <r>   -22.0599    17.5560   219.8327 </r>
       <r>   -21.8108     0.6715   220.0000 </r>
       <r>   -21.5617     0.0000   220.0000 </r>
       <r>   -21.3126     0.0000   220.0000 </r>
       <r>   -21.0635     0.0000   220.0000 </r>
       <r>   -20.8143     0.0000   220.0000 </r>
       <r>   -20.5652     0.0000   220.0000 </r>
       <r>   -20.3161     0.0000   220.0000 </r>
       <r>   -20.0670     0.0000   220.0000 </r>
       <r>   -19.8179     0.0000   220.0000 </r>
       <r>   -19.5687     0.0000   220.0000 </r>
       <r>   -19.3196     0.0000   220.0000 </r>
       <r>   -19.0705     0.0000   220.0000 </r>
       <r>   -18.8214     0.0000   220.0000 </r>
       <r>   -18.5722     0.0000   220.0000 </r>
       <r>   -18.3231     0.0000   220.0000 </r>
       <r>   -18.0740     0.0000   220.0000 </r>
       <r>   -17.8249     0.0000   220.0000 </r>
       <r>   -17.5758     0.0000   220.0000 </r>
       <r>   -17.3266     0.0000   220.0000 </r>
       <r>   -17.0775     0.0000   220.0000 </r>
       <r>   -16.8284     0.0000   220.0000 </r>
       <r>   -16.5793     0.0000   220.0000 </r>
       <r>   -16.3302     0.0000   220.0000 </r>
       <r>   -16.0810     0.0000   220.0000 </r>
       <r>   -15.8319     0.0000   220.0000 </r>
       <r>   -15.5828     0.0000   220.0000 </r>
       <r>   -15.3337     0.0000   220.0000 </r>
       <r>   -15.0845     0.0000   220.0000 </r>
       <r>   -14.8354     0.0000   220.0000 </r>
       <r>   -14.5863     0.0000   220.0000 </r>
       <r>   -14.3372     0.0000   220.0000 </r>
       <r>   -14.0881     0.0000   220.0000 </r>
       <r>   -13.8389     0.0000   220.0000 </r>
       <r>   -13.5898     0.0000   220.0000 </r>
       <r>   -13.3407     0.0000   220.0000 </r>
       <r>   -13.0916     0.0000   220.0000 </r>
       <r>   -12.8425     0.0000   220.0000 </r>
       <r>   -12.5933     0.0000   220.0000 </r>
       <r>   -12.3442     0.0000   220.0000 </r>
       <r>   -12.0951     0.0000   220.0000 </r>
       <r>   -11.8460     0.0000   220.0000 </r>
       <r>   -11.5968     0.0000   220.0000 </r>
       <r>   -11.3477     0.0000   220.0000 </r>
       <r>   -11.0986     0.0000   220.0000 </r>
       <r>   -10.8495     0.0000   220.0000 </r>
       <r>   -10.6004     0.0000   220.0000 </r>
       <r>   -10.3512     0.0000   220.0000 </r>
       <r>   -10.1021     0.0000   220.0000 </r>
       <r>    -9.8530     0.0000   220.0000 </r>
       <r>    -9.6039     0.0000   220.0000 </r>
       <r>    -9.3548     0.0000   220.0000 </r>
       <r>    -9.1056     0.0000   220.0000 </r>
       <r>    -8.8565     0.0000   220.0000 </r>
       <r>    -8.6074     0.0000   220.0000 </r>
       <r>    -8.3583     0.0000   220.0000 </r>
       <r>    -8.1091     0.0000   220.0000 </r>
       <r>    -7.8600     0.0000   220.0000 </r>
       <r>    -7.6109     0.0000   220.0000 </r>
       <r>    -7.3618     0.0132   220.0033 </r>
       <r>    -7.1127     2.1174   220.5308 </r>
       <r>    -6.8635     5.8115   221.9786 </r>
       <r>    -6.6144     6.0509   223.4860 </r>
       <r>    -6.3653    12.8294   226.6820 </r>
       <r>    -6.1162    18.8764   231.3846 </r>
       <r>    -5.8671    21.1013   236.6413 </r>
       <r>    -5.6179    23.3943   242.4693 </r>
       <r>    -5.3688    12.1011   245.4840 </r>
       <r>    -5.1197     2.0711   246.0000 </r>
       <r>    -4.8706     0.0001   246.0000 </r>
       <r>    -4.6214     0.0000   246.0000 </r>
       <r>    -4.3723     0.0000   246.0000 </r>
       <r>    -4.1232     0.2285   246.0569 </r>
       <r>    -3.8741     4.3886   247.1502 </r>
       <r>    -3.6250     3.5772   248.0414 </r>
       <r>    -3.3758     6.9918   249.7832 </r>
       <r>    -3.1267     7.6933   251.6998 </r>
       <r>    -2.8776    10.2448   254.2520 </r>
       <r>    -2.6285    18.2988   258.8106 </r>
       <r>    -2.3794    21.8056   264.2428 </r>
       <r>    -2.1302    21.9095   269.7010 </r>
       <r>    -1.8811    23.2633   275.4963 </r>
       <r>    -1.6320    19.0571   280.2439 </r>
       <r>    -1.3829    11.1764   283.0281 </r>
       <r>    -1.1337     3.8392   283.9846 </r>
       <r>    -0.8846     0.0619   284.0000 </r>
       <r>    -0.6355     0.0000   284.0000 </r>
       <r>    -0.3864     0.0000   284.0000 </r>
       <r>    -0.1373     0.0000   284.0000 </r>
       <r>     0.1119     0.0000   284.0000 </r>
       <r>     0.3610     0.0000   284.0000 </r>
       <r>     0.6101     0.0000   284.0000 </r>
       <r>     0.8592     0.1836   284.0457 </r>
       <r>     1.1083     1.1235   284.3256 </r>
       <r>     1.3575     6.4219   285.9255 </r>
       <r>     1.6066     8.4829   288.0387 </r>
       <r>     1.8557    12.0793   291.0480 </r>
       <r>     2.1048    16.4303   295.1411 </r>
       <r>     2.3540    24.3139   301.1982 </r>
       <r>     2.6031    29.8933   308.6453 </r>
       <r>     2.8522    25.4087   314.9752 </r>
       <r>     3.1013    33.0533   323.2094 </r>
       <r>     3.3504    28.5377   330.3188 </r>
       <r>     3.5996    35.7866   339.2340 </r>
       <r>     3.8487    49.1539   351.4793 </r>
       <r>     4.0978    57.8316   365.8864 </r>
       <r>     4.3469    61.6098   381.2347 </r>
       <r>     4.5960    61.9333   396.6636 </r>
       <r>     4.8452    57.6627   411.0286 </r>
       <r>     5.0943    55.3599   424.8199 </r>
       <r>     5.3434    49.0231   437.0326 </r>
       <r>     5.5925    37.8275   446.4563 </r>
       <r>     5.8417    30.4048   454.0308 </r>
       <r>     6.0908    31.2099   461.8058 </r>
       <r>     6.3399    23.8978   467.7593 </r>
       <r>     6.5890    15.5965   471.6447 </r>
       <r>     6.8381    13.0967   474.9074 </r>
       <r>     7.0873     5.1814   476.1982 </r>
       <r>     7.3364    11.3365   479.0224 </r>
       <r>     7.5855    18.4458   483.6176 </r>
       <r>     7.8346    20.2921   488.6728 </r>
       <r>     8.0837    18.1705   493.1995 </r>
       <r>     8.3329    18.7790   497.8777 </r>
       <r>     8.5820    25.8846   504.3261 </r>
       <r>     8.8311    29.9483   511.7869 </r>
       <r>     9.0802    30.9784   519.5043 </r>
       <r>     9.3294    29.4050   526.8297 </r>
       <r>     9.5785    31.0909   534.5751 </r>
       <r>     9.8276    38.0476   544.0536 </r>
       <r>    10.0767    46.7285   555.6946 </r>
       <r>    10.3258    54.0494   569.1595 </r>
       <r>    10.5750    53.6078   582.5144 </r>
       <r>    10.8241    53.8361   595.9261 </r>
       <r>    11.0732    50.6563   608.5457 </r>
       <r>    11.3223    53.3621   621.8393 </r>
       <r>    11.5714    54.6851   635.4626 </r>
       <r>    11.8206    53.6956   648.8393 </r>
       <r>    12.0697    47.9023   660.7727 </r>
       <r>    12.3188    38.2540   670.3026 </r>
       <r>    12.5679     6.7949   671.9954 </r>
       <r>    12.8171     0.0185   672.0000 </r>
       <r>    13.0662     0.0000   672.0000 </r>
       <r>    13.3153     0.0000   672.0000 </r>
       <r>    13.5644     0.0000   672.0000 </r>
       <r>    13.8135     0.0000   672.0000 </r>
       <r>    14.0627     0.0000   672.0000 </r>
       <r>    14.3118     0.0000   672.0000 </r>
       <r>    14.5609     0.0000   672.0000 </r>
       <r>    14.8100     0.0000   672.0000 </r>
       <r>    15.0591     0.0000   672.0000 </r>
       <r>    15.3083     0.0000   672.0000 </r>
       <r>    15.5574     0.0000   672.0000 </r>
       <r>    15.8065     0.0000   672.0000 </r>
      </set>
     </set>
    </array>
   </total>
  </dos>
 </calculation>
 <structure name="finalpos" >
  <crystal>
   <varray name="basis" >
    <v>       8.65683147      -0.00918904      -0.00077184 </v>
    <v>      -0.00302347       8.63976712      -0.01393907 </v>
    <v>       0.03034531      -0.02923767       8.70397043 </v>
   </varray>
   <i name="volume">    650.99256551 </i>
   <varray name="rec_basis" >
    <v>       0.11551571       0.00003978      -0.00040260 </v>
    <v>       0.00012289       0.11574453       0.00038837 </v>
    <v>       0.00001044       0.00018536       0.11489068 </v>
   </varray>
  </crystal>
  <varray name="positions" >
   <v>       0.01348315       0.99818568       0.99616912 </v>
   <v>       0.26107926       0.00170958       0.24409090 </v>
   <v>       0.25828745       0.49819713       0.24969511 </v>
   <v>       0.49871122       0.49271176       0.00284963 </v>
   <v>       0.50044297       0.24102386       0.75463312 </v>
   <v>      -0.00025983       0.49910556       0.50976343 </v>
   <v>       0.49758949       0.76115802       0.74709762 </v>
   <v>       0.99206366       0.24676314       0.24500600 </v>
   <v>       0.75098248       0.75199393       0.00441270 </v>
   <v>       0.00549055       0.24528536       0.75209007 </v>
   <v>       0.74977057       0.24651900       0.49932861 </v>
   <v>       0.00527293       0.75555054       0.75005504 </v>
   <v>       0.25264674       0.50072348       0.74997295 </v>
   <v>       0.26144283       0.24705750       0.98461323 </v>
   <v>       0.51712735       0.26653890       0.25344475 </v>
   <v>       0.73540880       0.98197017       0.27194638 </v>
   <v>       0.73202797       0.23317014      -0.00891637 </v>
   <v>       0.24077261       0.73995336       0.00659371 </v>
   <v>       0.24798179       0.25592438       0.51036802 </v>
   <v>       0.25337558       0.74236538       0.49440515 </v>
   <v>       0.25026470       0.24922359       0.24614752 </v>
   <v>       0.26944398       0.99708087       0.99787813 </v>
   <v>      -0.00092691       0.25392777      -0.00024982 </v>
   <v>       0.74554562       0.23839236       0.24493078 </v>
   <v>       0.74871934       0.00059416       0.00675639 </v>
   <v>       0.50804025       0.00675201       0.25039126 </v>
   <v>      -0.00129562       0.49957683       0.25061167 </v>
   <v>       0.49977353       0.75704958      -0.00153701 </v>
   <v>       0.99402355       0.00173504       0.74104007 </v>
   <v>       0.75392240       0.23786825       0.75037205 </v>
   <v>       0.75046533      -0.00046265       0.49925848 </v>
   <v>       0.49680746       0.23925230       0.49222079 </v>
   <v>       0.49537072       0.00202975       0.74085132 </v>
   <v>       0.99324292       0.00229062       0.24523178 </v>
   <v>       0.49719870       0.24010079       0.00954250 </v>
   <v>       0.26053234       0.75065811       0.24720569 </v>
   <v>       0.24218643       0.49611023       0.99898763 </v>
   <v>       0.00454205       0.74445771       0.00382435 </v>
   <v>       0.74339363       0.74821282       0.25149583 </v>
   <v>       0.76206832       0.48818649       0.00531237 </v>
   <v>       0.49914801       0.51789234       0.24742592 </v>
   <v>       0.25212185       0.24112259       0.74728366 </v>
   <v>       0.25568781       0.00029802       0.50736826 </v>
   <v>       0.00493273       0.24865823       0.49769742 </v>
   <v>       0.25024228       0.75936848       0.75041967 </v>
   <v>       0.25289908       0.49880667       0.49978753 </v>
   <v>       0.00352583       0.75417554       0.49751677 </v>
   <v>       0.99926367       0.50120763       0.75312036 </v>
   <v>       0.75136116       0.76085387       0.74824993 </v>
   <v>       0.74809792       0.49555666       0.50361860 </v>
   <v>       0.49634026       0.75495496       0.49624933 </v>
   <v>       0.50244811       0.50066853       0.74564075 </v>
   <v>       0.51673418       0.01126056       0.97755192 </v>
   <v>       0.00490514       0.51719254       0.97332726 </v>
   <v>       0.49248087       0.78035392       0.27918287 </v>
   <v>       0.23009332       0.00470265       0.77897254 </v>
   <v>       0.47034416      -0.01136451       0.48276993 </v>
   <v>       0.72097469       0.99115592       0.78118396 </v>
   <v>       0.00986369       0.76577033       0.25094782 </v>
   <v>       0.73412704       0.49951729       0.24558506 </v>
   <v>       0.02278281       0.00308576       0.48746199 </v>
   <v>       0.49937902       0.49581917       0.49013057 </v>
   <v>       0.74786366       0.50919001       0.76403009 </v>
   <v>       0.74736674       0.74080910       0.49658699 </v>
  </varray>
 </structure>
</modeling>
