HECN                                    
           1
     8.598302    0.005233    0.004981
     0.010994    8.617846    0.014517
     0.035770   -0.000471    8.662599
   Nb   W    V    N    C    Cr   Mo
   7   6   7  13  19   6   6
Direct configuration=     1
   0.00810557  0.00934354  0.98758983
   0.26049028  0.99724030  0.24484226
   0.25233743  0.49927857  0.24866151
   0.50322599  0.49946234  0.00141792
   0.50713968  0.24234272  0.75158820
   0.99659596  0.50028990  0.50759744
   0.49633489  0.76099496  0.74471224
   0.98491989  0.23178867  0.25563264
   0.76499964  0.74665653  0.00035286
   0.01317125  0.23554680  0.75232644
   0.76006684  0.23949137  0.48374889
   0.00427576  0.73807041  0.75418255
   0.25428937  0.50243521  0.75092048
   0.26470504  0.24925105  0.98439729
   0.51997228  0.23009136  0.26294594
   0.73535053  0.01210996  0.28126704
   0.73551614  0.24736447  0.98201338
   0.23815223  0.74272204  0.00304013
   0.24996888  0.25396389  0.51396559
   0.25275545  0.74273539  0.49477565
   0.24645837  0.24614227  0.24867899
   0.26539813  0.99982051  0.99648631
   0.00555520  0.25750199  0.00856451
   0.74703374  0.24842812  0.23255633
   0.74860462  0.00125471  0.99895419
   0.50685246  0.99450173  0.24478386
   0.99784395  0.49065822  0.25262250
   0.50070829  0.75675700  0.99749925
   0.99111718  0.98884196  0.73933707
   0.76028957  0.23022353  0.74187900
   0.74050034  0.99899054  0.50559955
   0.50209619  0.24785375  0.49395247
   0.49029680  0.00261652  0.74424655
   0.99183426  0.99774469  0.24419096
   0.50141336  0.24626494  0.00783409
   0.25965703  0.74802828  0.24740324
   0.24131224  0.49766470  0.99714741
   0.00687236  0.74789200  0.00576997
   0.73938119  0.76416971  0.24407221
   0.76296871  0.49165103  0.00850453
   0.49815115  0.49570935  0.24939925
   0.25681636  0.24418455  0.74835634
   0.25628909  0.00061931  0.50962554
   0.00866380  0.24711907  0.50180145
   0.24709537  0.75993478  0.75031173
   0.25126853  0.49807664  0.50160688
   0.00569826  0.75066914  0.50440234
   0.99912588  0.48749415  0.75575231
   0.75267389  0.76603195  0.74818610
   0.74690219  0.48932602  0.50538805
   0.49510658  0.76839778  0.49320234
   0.49941299  0.50250076  0.74749667
   0.51586469  0.01781413  0.98062154
   0.99358928  0.51990201  0.97349244
   0.50056962  0.73650154  0.27539093
   0.22096472  0.01027212  0.77445455
   0.47193231  0.01416360  0.48441433
   0.71716102  0.99737543  0.77852930
   0.00386142  0.76265714  0.25822466
   0.73501037  0.52009675  0.25373722
   0.02210974  0.99717808  0.49138426
   0.50018195  0.51734319  0.49298293
   0.74575182  0.51623413  0.76035450
   0.74723221  0.74221248  0.49482321
HECN                                    
           1
     8.558546    0.005297    0.005092
     0.011033    8.574897    0.014986
     0.035737    0.000063    8.627043
   Nb   W    V    N    C    Cr   Mo
   7   6   7  13  19   6   6
Direct configuration=     2
   0.00812277  0.00926073  0.98758259
   0.26045605  0.99718242  0.24486571
   0.25238241  0.49933556  0.24866337
   0.50325442  0.49944440  0.00141105
   0.50707997  0.24236672  0.75157670
   0.99655107  0.50030329  0.50761864
   0.49635100  0.76097368  0.74470967
   0.98488143  0.23177511  0.25563895
   0.76500941  0.74664544  0.00036734
   0.01323132  0.23558091  0.75230633
   0.76009937  0.23951817  0.48378573
   0.00427241  0.73805964  0.75418473
   0.25430037  0.50243987  0.75089839
   0.26474329  0.24931362  0.98435207
   0.51997019  0.23007069  0.26293910
   0.73531750  0.01209627  0.28125943
   0.73542819  0.24722321  0.98200452
   0.23810215  0.74266542  0.00305871
   0.24993890  0.25401544  0.51398329
   0.25278629  0.74273002  0.49476048
   0.24643419  0.24616370  0.24868293
   0.26550644  0.99983702  0.99635197
   0.00556342  0.25757826  0.00864343
   0.74710038  0.24840433  0.23244859
   0.74846375  0.00123850  0.99890636
   0.50699712  0.99450163  0.24480937
   0.99779357  0.49055684  0.25250431
   0.50070949  0.75684758  0.99756118
   0.99110381  0.98885665  0.73930044
   0.76034964  0.23024505  0.74193080
   0.74047778  0.99902259  0.50568866
   0.50210567  0.24781112  0.49380947
   0.49029745  0.00265146  0.74428656
   0.99177880  0.99778795  0.24428679
   0.50137763  0.24614102  0.00788668
   0.25968288  0.74805412  0.24739875
   0.24125615  0.49765274  0.99712446
   0.00693189  0.74782382  0.00579974
   0.73936421  0.76420360  0.24409746
   0.76301713  0.49156196  0.00852954
   0.49816384  0.49570554  0.24944712
   0.25676473  0.24416831  0.74835776
   0.25635594  0.00064168  0.50968605
   0.00868216  0.24707846  0.50176726
   0.24706944  0.75996225  0.75032505
   0.25133709  0.49807457  0.50161990
   0.00573066  0.75073836  0.50438610
   0.99913710  0.48746432  0.75581100
   0.75268073  0.76607926  0.74823125
   0.74684876  0.48925845  0.50537465
   0.49507959  0.76842885  0.49306602
   0.49941369  0.50251766  0.74746952
   0.51590925  0.01782303  0.98062270
   0.99352026  0.51990881  0.97346257
   0.50057911  0.73645288  0.27545500
   0.22094866  0.01030645  0.77448236
   0.47189452  0.01418157  0.48441389
   0.71712240  0.99745770  0.77855767
   0.00388285  0.76266869  0.25822026
   0.73498540  0.52011681  0.25371477
   0.02213749  0.99719218  0.49135245
   0.50017109  0.51735695  0.49298053
   0.74576003  0.51629277  0.76034654
   0.74723570  0.74218367  0.49483543
HECN                                    
           1
     8.585537    0.005253    0.005017
     0.011007    8.604056    0.014667
     0.035759   -0.000300    8.651183
   Nb   W    V    N    C    Cr   Mo
   7   6   7  13  19   6   6
Direct configuration=     3
   0.00811104  0.00931724  0.98758752
   0.26047940  0.99722191  0.24484972
   0.25235173  0.49929667  0.24866211
   0.50323503  0.49945664  0.00141573
   0.50712070  0.24235034  0.75158454
   0.99658169  0.50029416  0.50760419
   0.49634001  0.76098820  0.74471142
   0.98490766  0.23178436  0.25563464
   0.76500274  0.74665300  0.00035747
   0.01319035  0.23555764  0.75232004
   0.76007718  0.23949988  0.48376062
   0.00427470  0.73806699  0.75418325
   0.25429287  0.50243669  0.75091345
   0.26471720  0.24927092  0.98438290
   0.51997161  0.23008479  0.26294376
   0.73534003  0.01210561  0.28126462
   0.73548817  0.24731959  0.98201055
   0.23813631  0.74270405  0.00304604
   0.24995935  0.25398027  0.51397123
   0.25276526  0.74273368  0.49477082
   0.24645068  0.24614907  0.24868024
   0.26543256  0.99982575  0.99644355
   0.00555782  0.25752622  0.00858963
   0.74705493  0.24842056  0.23252204
   0.74855983  0.00124955  0.99893896
   0.50689845  0.99450170  0.24479198
   0.99782793  0.49062601  0.25258488
   0.50070867  0.75678577  0.99751896
   0.99111293  0.98884663  0.73932541
   0.76030867  0.23023037  0.74189549
   0.74049317  0.99900072  0.50562792
   0.50209920  0.24784020  0.49390695
   0.49029701  0.00262762  0.74425929
   0.99181663  0.99775844  0.24422146
   0.50140200  0.24622557  0.00785082
   0.25966525  0.74803649  0.24740181
   0.24129441  0.49766090  0.99714010
   0.00689129  0.74787034  0.00577944
   0.73937579  0.76418048  0.24408025
   0.76298410  0.49162273  0.00851249
   0.49815518  0.49570814  0.24941449
   0.25679995  0.24417939  0.74835679
   0.25631034  0.00062642  0.50964480
   0.00866963  0.24710617  0.50179057
   0.24708712  0.75994350  0.75031597
   0.25129033  0.49807598  0.50161103
   0.00570856  0.75069113  0.50439718
   0.99912945  0.48748467  0.75577099
   0.75267607  0.76604698  0.74820047
   0.74688520  0.48930455  0.50538378
   0.49509800  0.76840764  0.49315895
   0.49941321  0.50250613  0.74748803
   0.51587886  0.01781696  0.98062191
   0.99356734  0.51990417  0.97348293
   0.50057264  0.73648608  0.27541132
   0.22095962  0.01028303  0.77446340
   0.47192030  0.01416931  0.48441419
   0.71714874  0.99740157  0.77853833
   0.00386823  0.76266081  0.25822326
   0.73500243  0.52010312  0.25373007
   0.02211856  0.99718256  0.49137414
   0.50017850  0.51734756  0.49298217
   0.74575443  0.51625276  0.76035197
   0.74723332  0.74220333  0.49482710
HECN                                    
           1
     8.585396    0.005254    0.005017
     0.011007    8.603903    0.014669
     0.035759   -0.000298    8.651057
   Nb   W    V    N    C    Cr   Mo
   7   6   7  13  19   6   6
Direct configuration=     4
   0.00811110  0.00931694  0.98758750
   0.26047928  0.99722170  0.24484980
   0.25235189  0.49929688  0.24866211
   0.50323513  0.49945658  0.00141571
   0.50712049  0.24235043  0.75158450
   0.99658153  0.50029420  0.50760426
   0.49634007  0.76098812  0.74471141
   0.98490753  0.23178431  0.25563467
   0.76500278  0.74665296  0.00035752
   0.01319056  0.23555776  0.75231997
   0.76007730  0.23949998  0.48376075
   0.00427468  0.73806695  0.75418325
   0.25429291  0.50243671  0.75091337
   0.26471734  0.24927115  0.98438274
   0.51997161  0.23008472  0.26294374
   0.73533991  0.01210556  0.28126459
   0.73548786  0.24731909  0.98201052
   0.23813613  0.74270385  0.00304611
   0.24995925  0.25398045  0.51397129
   0.25276537  0.74273366  0.49477076
   0.24645059  0.24614915  0.24868026
   0.26543295  0.99982580  0.99644308
   0.00555784  0.25752650  0.00858991
   0.74705516  0.24842047  0.23252165
   0.74855933  0.00124950  0.99893879
   0.50689897  0.99450170  0.24479207
   0.99782775  0.49062565  0.25258446
   0.50070867  0.75678610  0.99751918
   0.99111288  0.98884668  0.73932528
   0.76030888  0.23023044  0.74189567
   0.74049309  0.99900084  0.50562823
   0.50209924  0.24784005  0.49390644
   0.49029701  0.00262774  0.74425943
   0.99181643  0.99775859  0.24422180
   0.50140187  0.24622513  0.00785101
   0.25966534  0.74803658  0.24740179
   0.24129421  0.49766085  0.99714002
   0.00689150  0.74787010  0.00577955
   0.73937573  0.76418060  0.24408034
   0.76298427  0.49162242  0.00851258
   0.49815523  0.49570813  0.24941466
   0.25679976  0.24417933  0.74835680
   0.25631058  0.00062650  0.50964501
   0.00866970  0.24710602  0.50179044
   0.24708703  0.75994360  0.75031602
   0.25129057  0.49807597  0.50161107
   0.00570868  0.75069137  0.50439712
   0.99912949  0.48748457  0.75577119
   0.75267609  0.76604715  0.74820063
   0.74688501  0.48930431  0.50538373
   0.49509790  0.76840775  0.49315847
   0.49941321  0.50250619  0.74748793
   0.51587901  0.01781699  0.98062191
   0.99356709  0.51990419  0.97348283
   0.50057267  0.73648591  0.27541155
   0.22095956  0.01028315  0.77446350
   0.47192016  0.01416938  0.48441419
   0.71714861  0.99740186  0.77853843
   0.00386831  0.76266085  0.25822324
   0.73500234  0.52010319  0.25372999
   0.02211866  0.99718261  0.49137403
   0.50017846  0.51734761  0.49298216
   0.74575446  0.51625297  0.76035194
   0.74723333  0.74220322  0.49482714
HECN                                    
           1
     8.571971    0.005275    0.005055
     0.011020    8.589400    0.014828
     0.035748   -0.000117    8.639050
   Nb   W    V    N    C    Cr   Mo
   7   6   7  13  19   6   6
Direct configuration=     5
   0.00811692  0.00928893  0.98758505
   0.26046770  0.99720213  0.24485773
   0.25236710  0.49931615  0.24866274
   0.50324474  0.49945051  0.00141338
   0.50710029  0.24235855  0.75158061
   0.99656634  0.50029873  0.50761143
   0.49634552  0.76098093  0.74471054
   0.98489452  0.23177972  0.25563680
   0.76500608  0.74664921  0.00036242
   0.01321088  0.23556929  0.75231317
   0.76008830  0.23950904  0.48377320
   0.00427355  0.73806331  0.75418399
   0.25429662  0.50243828  0.75090590
   0.26473028  0.24929231  0.98436745
   0.51997090  0.23007773  0.26294143
   0.73532874  0.01210093  0.28126202
   0.73545812  0.24727131  0.98200752
   0.23811920  0.74268470  0.00305239
   0.24994911  0.25399789  0.51397728
   0.25277580  0.74273185  0.49476564
   0.24644242  0.24615640  0.24868159
   0.26546958  0.99983139  0.99639765
   0.00556062  0.25755229  0.00861659
   0.74707770  0.24841243  0.23248522
   0.74851169  0.00124401  0.99892262
   0.50694789  0.99450167  0.24480070
   0.99781071  0.49059136  0.25254449
   0.50070908  0.75681673  0.99754012
   0.99110836  0.98885165  0.73931290
   0.76032920  0.23023772  0.74191319
   0.74048546  0.99901168  0.50565836
   0.50210244  0.24782563  0.49385809
   0.49029723  0.00263956  0.74427296
   0.99179768  0.99777322  0.24425421
   0.50138979  0.24618322  0.00786879
   0.25967408  0.74804532  0.24740027
   0.24127524  0.49765681  0.99713226
   0.00691163  0.74784704  0.00578962
   0.73936999  0.76419206  0.24408888
   0.76300065  0.49159229  0.00852103
   0.49815952  0.49570684  0.24943085
   0.25678230  0.24417384  0.74835728
   0.25633319  0.00063406  0.50966547
   0.00867591  0.24709229  0.50177888
   0.24707826  0.75995289  0.75032052
   0.25131376  0.49807527  0.50161547
   0.00571963  0.75071479  0.50439163
   0.99913328  0.48747448  0.75579104
   0.75267840  0.76606315  0.74821590
   0.74686694  0.48928146  0.50537920
   0.49508877  0.76841826  0.49311237
   0.49941345  0.50251190  0.74747875
   0.51589408  0.01782000  0.98062231
   0.99354375  0.51990650  0.97347273
   0.50057588  0.73646945  0.27543321
   0.22095413  0.01029476  0.77447291
   0.47190738  0.01417545  0.48441404
   0.71713554  0.99742969  0.77854803
   0.00387556  0.76266476  0.25822176
   0.73499390  0.52010998  0.25372240
   0.02212805  0.99718738  0.49136327
   0.50017478  0.51735227  0.49298135
   0.74575724  0.51627280  0.76034925
   0.74723451  0.74219348  0.49483128
HECN                                    
           1
     8.585206    0.005254    0.005018
     0.011007    8.603698    0.014671
     0.035759   -0.000295    8.650887
   Nb   W    V    N    C    Cr   Mo
   7   6   7  13  19   6   6
Direct configuration=     6
   0.00811118  0.00931659  0.98758747
   0.26047913  0.99722146  0.24484991
   0.25235208  0.49929712  0.24866212
   0.50323525  0.49945650  0.00141568
   0.50712023  0.24235053  0.75158445
   0.99658133  0.50029426  0.50760435
   0.49634014  0.76098803  0.74471140
   0.98490736  0.23178425  0.25563469
   0.76500282  0.74665292  0.00035758
   0.01319082  0.23555790  0.75231988
   0.76007743  0.23950009  0.48376091
   0.00427467  0.73806691  0.75418326
   0.25429295  0.50243673  0.75091327
   0.26471750  0.24927141  0.98438254
   0.51997160  0.23008463  0.26294371
   0.73533977  0.01210550  0.28126456
   0.73548749  0.24731849  0.98201048
   0.23813592  0.74270361  0.00304619
   0.24995912  0.25398067  0.51397137
   0.25276550  0.74273364  0.49477070
   0.24645049  0.24614924  0.24868027
   0.26543341  0.99982587  0.99644250
   0.00555788  0.25752682  0.00859025
   0.74705545  0.24842037  0.23252119
   0.74855873  0.00124943  0.99893859
   0.50689959  0.99450170  0.24479218
   0.99782754  0.49062522  0.25258395
   0.50070868  0.75678648  0.99751945
   0.99111283  0.98884674  0.73932513
   0.76030914  0.23023054  0.74189590
   0.74049299  0.99900097  0.50562862
   0.50209928  0.24783987  0.49390582
   0.49029701  0.00262789  0.74425960
   0.99181620  0.99775877  0.24422222
   0.50140172  0.24622461  0.00785124
   0.25966545  0.74803669  0.24740177
   0.24129397  0.49766080  0.99713992
   0.00689175  0.74786981  0.00577968
   0.73937566  0.76418074  0.24408045
   0.76298448  0.49162204  0.00851268
   0.49815528  0.49570811  0.24941487
   0.25679954  0.24417926  0.74835680
   0.25631087  0.00062659  0.50964527
   0.00866978  0.24710585  0.50179030
   0.24708692  0.75994372  0.75031607
   0.25129087  0.49807596  0.50161113
   0.00570882  0.75069167  0.50439705
   0.99912954  0.48748444  0.75577145
   0.75267612  0.76604735  0.74820083
   0.74688479  0.48930403  0.50538367
   0.49509779  0.76840788  0.49315788
   0.49941321  0.50250626  0.74748782
   0.51587920  0.01781703  0.98062192
   0.99356680  0.51990422  0.97348270
   0.50057271  0.73648570  0.27541183
   0.22095949  0.01028330  0.77446362
   0.47192000  0.01416945  0.48441419
   0.71714844  0.99740221  0.77853856
   0.00386840  0.76266090  0.25822323
   0.73500224  0.52010328  0.25372989
   0.02211878  0.99718267  0.49137389
   0.50017841  0.51734767  0.49298215
   0.74575449  0.51625322  0.76035191
   0.74723334  0.74220310  0.49482719
HECN                                    
           1
     8.585344    0.005254    0.005017
     0.011007    8.603847    0.014670
     0.035759   -0.000297    8.651010
   Nb   W    V    N    C    Cr   Mo
   7   6   7  13  19   6   6
Direct configuration=     7
   0.00811112  0.00931688  0.98758749
   0.26047925  0.99722166  0.24484982
   0.25235193  0.49929692  0.24866212
   0.50323515  0.49945656  0.00141570
   0.50712044  0.24235045  0.75158449
   0.99658149  0.50029421  0.50760428
   0.49634008  0.76098811  0.74471141
   0.98490750  0.23178430  0.25563467
   0.76500278  0.74665296  0.00035753
   0.01319061  0.23555778  0.75231995
   0.76007732  0.23950000  0.48376078
   0.00427468  0.73806694  0.75418326
   0.25429291  0.50243671  0.75091335
   0.26471737  0.24927119  0.98438270
   0.51997161  0.23008470  0.26294373
   0.73533988  0.01210555  0.28126458
   0.73548779  0.24731899  0.98201051
   0.23813609  0.74270381  0.00304612
   0.24995922  0.25398049  0.51397131
   0.25276539  0.74273366  0.49477075
   0.24645058  0.24614917  0.24868026
   0.26543303  0.99982582  0.99644296
   0.00555785  0.25752655  0.00858998
   0.74705522  0.24842045  0.23252156
   0.74855922  0.00124948  0.99893875
   0.50689908  0.99450170  0.24479210
   0.99782771  0.49062557  0.25258436
   0.50070868  0.75678617  0.99751924
   0.99111287  0.98884669  0.73932525
   0.76030893  0.23023046  0.74189572
   0.74049307  0.99900086  0.50562831
   0.50209925  0.24784001  0.49390632
   0.49029701  0.00262777  0.74425946
   0.99181639  0.99775862  0.24422189
   0.50140184  0.24622504  0.00785106
   0.25966536  0.74803660  0.24740179
   0.24129417  0.49766085  0.99714000
   0.00689155  0.74787005  0.00577957
   0.73937572  0.76418062  0.24408036
   0.76298431  0.49162235  0.00851260
   0.49815524  0.49570813  0.24941470
   0.25679972  0.24417932  0.74835680
   0.25631064  0.00062652  0.50964506
   0.00866971  0.24710599  0.50179041
   0.24708701  0.75994362  0.75031603
   0.25129063  0.49807597  0.50161108
   0.00570870  0.75069143  0.50439710
   0.99912950  0.48748455  0.75577124
   0.75267610  0.76604718  0.74820067
   0.74688497  0.48930426  0.50538372
   0.49509788  0.76840777  0.49315835
   0.49941321  0.50250620  0.74748791
   0.51587905  0.01781700  0.98062192
   0.99356704  0.51990420  0.97348280
   0.50057268  0.73648587  0.27541160
   0.22095955  0.01028318  0.77446353
   0.47192013  0.01416939  0.48441419
   0.71714858  0.99740192  0.77853846
   0.00386833  0.76266086  0.25822324
   0.73500232  0.52010321  0.25372997
   0.02211868  0.99718262  0.49137400
   0.50017845  0.51734762  0.49298216
   0.74575447  0.51625301  0.76035193
   0.74723333  0.74220320  0.49482715
HECN                                    
           1
     8.585382    0.005254    0.005017
     0.011007    8.603888    0.014669
     0.035759   -0.000298    8.651044
   Nb   W    V    N    C    Cr   Mo
   7   6   7  13  19   6   6
Direct configuration=     8
   0.00811110  0.00931696  0.98758750
   0.26047929  0.99722172  0.24484980
   0.25235188  0.49929686  0.24866211
   0.50323512  0.49945658  0.00141571
   0.50712050  0.24235042  0.75158450
   0.99658153  0.50029420  0.50760426
   0.49634007  0.76098813  0.74471141
   0.98490753  0.23178431  0.25563467
   0.76500277  0.74665297  0.00035752
   0.01319055  0.23555775  0.75231997
   0.76007729  0.23949997  0.48376075
   0.00427468  0.73806695  0.75418325
   0.25429290  0.50243671  0.75091337
   0.26471733  0.24927113  0.98438275
   0.51997161  0.23008472  0.26294374
   0.73533991  0.01210556  0.28126459
   0.73548788  0.24731912  0.98201052
   0.23813614  0.74270386  0.00304611
   0.24995925  0.25398044  0.51397129
   0.25276536  0.74273366  0.49477077
   0.24645060  0.24614915  0.24868026
   0.26543293  0.99982580  0.99644309
   0.00555784  0.25752648  0.00858990
   0.74705515  0.24842047  0.23252167
   0.74855936  0.00124950  0.99893880
   0.50689895  0.99450170  0.24479207
   0.99782776  0.49062567  0.25258447
   0.50070867  0.75678608  0.99751918
   0.99111289  0.98884668  0.73932529
   0.76030887  0.23023044  0.74189567
   0.74049309  0.99900083  0.50562822
   0.50209924  0.24784006  0.49390646
   0.49029701  0.00262774  0.74425942
   0.99181644  0.99775858  0.24422179
   0.50140188  0.24622516  0.00785101
   0.25966534  0.74803658  0.24740179
   0.24129422  0.49766086  0.99714003
   0.00689149  0.74787012  0.00577955
   0.73937573  0.76418059  0.24408034
   0.76298427  0.49162244  0.00851257
   0.49815523  0.49570813  0.24941465
   0.25679977  0.24417933  0.74835680
   0.25631057  0.00062649  0.50964501
   0.00866969  0.24710603  0.50179045
   0.24708704  0.75994360  0.75031602
   0.25129056  0.49807597  0.50161107
   0.00570867  0.75069136  0.50439712
   0.99912949  0.48748457  0.75577119
   0.75267609  0.76604714  0.74820063
   0.74688502  0.48930433  0.50538373
   0.49509791  0.76840774  0.49315848
   0.49941321  0.50250618  0.74748794
   0.51587901  0.01781699  0.98062191
   0.99356710  0.51990419  0.97348283
   0.50057267  0.73648592  0.27541154
   0.22095956  0.01028315  0.77446350
   0.47192017  0.01416937  0.48441419
   0.71714861  0.99740184  0.77853843
   0.00386831  0.76266085  0.25822324
   0.73500235  0.52010319  0.25372999
   0.02211866  0.99718261  0.49137403
   0.50017846  0.51734761  0.49298216
   0.74575446  0.51625296  0.76035194
   0.74723333  0.74220323  0.49482714
HECN                                    
           1
     8.585389    0.005254    0.005017
     0.011007    8.603896    0.014669
     0.035759   -0.000298    8.651050
   Nb   W    V    N    C    Cr   Mo
   7   6   7  13  19   6   6
Direct configuration=     9
   0.00811110  0.00931697  0.98758750
   0.26047929  0.99722173  0.24484980
   0.25235188  0.49929685  0.24866211
   0.50323512  0.49945658  0.00141571
   0.50712051  0.24235042  0.75158450
   0.99658154  0.50029420  0.50760426
   0.49634006  0.76098813  0.74471141
   0.98490754  0.23178432  0.25563466
   0.76500277  0.74665297  0.00035752
   0.01319054  0.23555774  0.75231997
   0.76007728  0.23949997  0.48376074
   0.00427469  0.73806696  0.75418325
   0.25429290  0.50243670  0.75091337
   0.26471733  0.24927112  0.98438275
   0.51997161  0.23008473  0.26294374
   0.73533992  0.01210557  0.28126459
   0.73548789  0.24731915  0.98201052
   0.23813615  0.74270388  0.00304610
   0.24995926  0.25398043  0.51397129
   0.25276536  0.74273366  0.49477077
   0.24645060  0.24614914  0.24868026
   0.26543291  0.99982580  0.99644311
   0.00555784  0.25752647  0.00858989
   0.74705514  0.24842048  0.23252169
   0.74855938  0.00124950  0.99893881
   0.50689892  0.99450170  0.24479207
   0.99782777  0.49062569  0.25258449
   0.50070867  0.75678606  0.99751917
   0.99111289  0.98884668  0.73932529
   0.76030886  0.23023044  0.74189566
   0.74049310  0.99900083  0.50562821
   0.50209923  0.24784006  0.49390648
   0.49029701  0.00262773  0.74425942
   0.99181645  0.99775858  0.24422178
   0.50140188  0.24622518  0.00785100
   0.25966533  0.74803657  0.24740179
   0.24129423  0.49766086  0.99714003
   0.00689148  0.74787013  0.00577954
   0.73937574  0.76418059  0.24408033
   0.76298426  0.49162245  0.00851257
   0.49815522  0.49570813  0.24941465
   0.25679978  0.24417934  0.74835680
   0.25631056  0.00062649  0.50964500
   0.00866969  0.24710604  0.50179045
   0.24708704  0.75994359  0.75031601
   0.25129055  0.49807597  0.50161107
   0.00570867  0.75069135  0.50439712
   0.99912949  0.48748458  0.75577118
   0.75267609  0.76604713  0.74820062
   0.74688503  0.48930434  0.50538374
   0.49509791  0.76840774  0.49315851
   0.49941321  0.50250618  0.74748794
   0.51587900  0.01781699  0.98062191
   0.99356712  0.51990419  0.97348283
   0.50057267  0.73648593  0.27541153
   0.22095957  0.01028314  0.77446349
   0.47192018  0.01416937  0.48441419
   0.71714862  0.99740183  0.77853843
   0.00386830  0.76266085  0.25822325
   0.73500235  0.52010319  0.25373000
   0.02211865  0.99718261  0.49137403
   0.50017846  0.51734761  0.49298216
   0.74575446  0.51625295  0.76035194
   0.74723333  0.74220324  0.49482714
HECN                                    
           1
     8.585391    0.005254    0.005017
     0.011007    8.603899    0.014669
     0.035759   -0.000298    8.651053
   Nb   W    V    N    C    Cr   Mo
   7   6   7  13  19   6   6
Direct configuration=    10
   0.00811110  0.00931698  0.98758750
   0.26047929  0.99722173  0.24484980
   0.25235187  0.49929685  0.24866211
   0.50323512  0.49945658  0.00141571
   0.50712051  0.24235042  0.75158450
   0.99658154  0.50029420  0.50760425
   0.49634006  0.76098813  0.74471141
   0.98490754  0.23178432  0.25563466
   0.76500277  0.74665297  0.00035752
   0.01319054  0.23555774  0.75231997
   0.76007728  0.23949997  0.48376074
   0.00427469  0.73806696  0.75418325
   0.25429290  0.50243670  0.75091338
   0.26471732  0.24927112  0.98438276
   0.51997161  0.23008473  0.26294374
   0.73533992  0.01210557  0.28126459
   0.73548790  0.24731916  0.98201052
   0.23813615  0.74270388  0.00304610
   0.24995926  0.25398043  0.51397129
   0.25276535  0.74273366  0.49477077
   0.24645060  0.24614914  0.24868026
   0.26543290  0.99982580  0.99644312
   0.00555784  0.25752646  0.00858988
   0.74705514  0.24842048  0.23252169
   0.74855939  0.00124950  0.99893881
   0.50689891  0.99450170  0.24479207
   0.99782777  0.49062569  0.25258450
   0.50070867  0.75678606  0.99751916
   0.99111289  0.98884667  0.73932530
   0.76030885  0.23023043  0.74189565
   0.74049310  0.99900082  0.50562820
   0.50209923  0.24784007  0.49390649
   0.49029701  0.00262773  0.74425941
   0.99181646  0.99775857  0.24422177
   0.50140188  0.24622519  0.00785099
   0.25966533  0.74803657  0.24740179
   0.24129423  0.49766086  0.99714003
   0.00689147  0.74787013  0.00577954
   0.73937574  0.76418058  0.24408033
   0.76298425  0.49162246  0.00851257
   0.49815522  0.49570813  0.24941464
   0.25679979  0.24417934  0.74835680
   0.25631055  0.00062649  0.50964499
   0.00866969  0.24710604  0.50179046
   0.24708704  0.75994359  0.75031601
   0.25129055  0.49807597  0.50161107
   0.00570866  0.75069134  0.50439712
   0.99912948  0.48748458  0.75577117
   0.75267609  0.76604713  0.74820062
   0.74688504  0.48930434  0.50538374
   0.49509791  0.76840774  0.49315852
   0.49941321  0.50250618  0.74748794
   0.51587900  0.01781699  0.98062191
   0.99356712  0.51990419  0.97348284
   0.50057267  0.73648593  0.27541153
   0.22095957  0.01028314  0.77446349
   0.47192018  0.01416937  0.48441419
   0.71714862  0.99740182  0.77853842
   0.00386830  0.76266085  0.25822325
   0.73500235  0.52010319  0.25373000
   0.02211865  0.99718260  0.49137404
   0.50017846  0.51734760  0.49298216
   0.74575446  0.51625294  0.76035194
   0.74723333  0.74220324  0.49482714
HECN                                    
           1
     8.585390    0.005254    0.005017
     0.011007    8.603897    0.014669
     0.035759   -0.000298    8.651052
   Nb   W    V    N    C    Cr   Mo
   7   6   7  13  19   6   6
Direct configuration=    11
   0.00811110  0.00931698  0.98758750
   0.26047929  0.99722173  0.24484980
   0.25235187  0.49929685  0.24866211
   0.50323512  0.49945658  0.00141571
   0.50712051  0.24235042  0.75158450
   0.99658154  0.50029420  0.50760425
   0.49634006  0.76098813  0.74471141
   0.98490754  0.23178432  0.25563466
   0.76500277  0.74665297  0.00035752
   0.01319054  0.23555774  0.75231997
   0.76007728  0.23949997  0.48376074
   0.00427469  0.73806696  0.75418325
   0.25429290  0.50243670  0.75091338
   0.26471733  0.24927112  0.98438275
   0.51997161  0.23008473  0.26294374
   0.73533992  0.01210557  0.28126459
   0.73548789  0.24731915  0.98201052
   0.23813615  0.74270388  0.00304610
   0.24995926  0.25398043  0.51397129
   0.25276535  0.74273366  0.49477077
   0.24645060  0.24614914  0.24868026
   0.26543291  0.99982580  0.99644312
   0.00555784  0.25752647  0.00858989
   0.74705514  0.24842048  0.23252169
   0.74855939  0.00124950  0.99893881
   0.50689891  0.99450170  0.24479207
   0.99782777  0.49062569  0.25258449
   0.50070867  0.75678606  0.99751916
   0.99111289  0.98884667  0.73932530
   0.76030886  0.23023044  0.74189566
   0.74049310  0.99900082  0.50562820
   0.50209923  0.24784006  0.49390649
   0.49029701  0.00262773  0.74425942
   0.99181646  0.99775857  0.24422177
   0.50140188  0.24622518  0.00785099
   0.25966533  0.74803657  0.24740179
   0.24129423  0.49766086  0.99714003
   0.00689148  0.74787013  0.00577954
   0.73937574  0.76418058  0.24408033
   0.76298426  0.49162245  0.00851257
   0.49815522  0.49570813  0.24941464
   0.25679978  0.24417934  0.74835680
   0.25631056  0.00062649  0.50964499
   0.00866969  0.24710604  0.50179045
   0.24708704  0.75994359  0.75031601
   0.25129055  0.49807597  0.50161107
   0.00570867  0.75069134  0.50439712
   0.99912949  0.48748458  0.75577118
   0.75267609  0.76604713  0.74820062
   0.74688503  0.48930434  0.50538374
   0.49509791  0.76840774  0.49315851
   0.49941321  0.50250618  0.74748794
   0.51587900  0.01781699  0.98062191
   0.99356712  0.51990419  0.97348283
   0.50057267  0.73648593  0.27541153
   0.22095957  0.01028314  0.77446349
   0.47192018  0.01416937  0.48441419
   0.71714862  0.99740183  0.77853843
   0.00386830  0.76266085  0.25822325
   0.73500235  0.52010319  0.25373000
   0.02211865  0.99718260  0.49137404
   0.50017846  0.51734761  0.49298216
   0.74575446  0.51625295  0.76035194
   0.74723333  0.74220324  0.49482714
HECN                                    
           1
     8.584951    0.005466    0.005164
     0.011220    8.601326    0.015094
     0.035904    0.000129    8.651643
   Nb   W    V    N    C    Cr   Mo
   7   6   7  13  19   6   6
Direct configuration=    12
   0.00808432  0.00919814  0.98764679
   0.26043903  0.99721135  0.24486289
   0.25232090  0.49927234  0.24866569