<?xml version="1.0" encoding="ISO-8859-1"?>
<modeling>
 <generator>
  <i name="program" type="string">vasp </i>
  <i name="version" type="string">6.4.3  </i>
  <i name="subversion" type="string">19Mar24 (build Sep 18 2024 11:30:23) complex                          parallel </i>
  <i name="platform" type="string">LinuxIFC </i>
  <i name="date" type="string">2026 07 06 </i>
  <i name="time" type="string">22:36:19 </i>
 </generator>
 <incar>
  <i type="string" name="SYSTEM">HECN</i>
  <i type="int" name="ISTART">     0</i>
  <i type="string" name="PREC">Normal</i>
  <i type="string" name="ALGO">Fast</i>
  <i type="int" name="ICHARG">     2</i>
  <i type="int" name="NELM">    60</i>
  <i type="int" name="IBRION">     2</i>
  <i name="EDIFF">      0.00001000</i>
  <i name="EDIFFG">     -0.01000000</i>
  <i type="int" name="NSW">   100</i>
  <i type="int" name="ISIF">     3</i>
  <i name="ENCUT">    400.00000000</i>
  <i name="POTIM">      0.50000000</i>
  <i type="logical" name="LREAL"> F  </i>
  <i type="int" name="ISMEAR">     0</i>
  <i name="SIGMA">      0.10000000</i>
  <i type="logical" name="LWAVE"> F  </i>
  <i type="logical" name="LCHARG"> F  </i>
 </incar>
 <primitive_cell>
  <structure name="primitive_cell" >
   <crystal>
    <varray name="basis" >
     <v>       8.92725901       0.01559320      -0.02576126 </v>
     <v>       0.02203997       8.87774864       0.00520655 </v>
     <v>       0.00618445      -0.01017501       8.85384110 </v>
    </varray>
    <i name="volume">    701.70083301 </i>
    <varray name="rec_basis" >
     <v>       0.11201672      -0.00027805      -0.00007856 </v>
     <v>      -0.00019638       0.11264158       0.00012959 </v>
     <v>       0.00032604      -0.00006705       0.11294502 </v>
    </varray>
   </crystal>
   <varray name="positions" >
    <v>       0.00206397       0.99818006       0.99403474 </v>
    <v>       0.27131913       0.99906855       0.24622017 </v>
    <v>       0.24656926       0.49758658       0.24829092 </v>
    <v>       0.49853096       0.50007106       0.00030698 </v>
    <v>       0.50453600       0.24613869       0.74135746 </v>
    <v>       0.00010846       0.50270215       0.50068440 </v>
    <v>       0.49401580       0.75832484       0.74818695 </v>
    <v>       0.98961284       0.23882842       0.24741755 </v>
    <v>       0.75318861       0.74486705       0.01057399 </v>
    <v>       0.00231499       0.24932258       0.75380963 </v>
    <v>       0.75202996       0.24343894       0.49760192 </v>
    <v>       0.99973058       0.74969211       0.74973622 </v>
    <v>       0.24988590       0.49301303       0.75007937 </v>
    <v>       0.26982650       0.24115771       0.00235785 </v>
    <v>       0.51367489       0.25053523       0.25245232 </v>
    <v>       0.74242024       0.98945331       0.25088267 </v>
    <v>       0.73985300       0.24040118       0.99982446 </v>
    <v>       0.24649302       0.74544303       0.99594345 </v>
    <v>       0.25002024       0.24580789       0.50143456 </v>
    <v>       0.24942692       0.75328574       0.50964655 </v>
    <v>       0.24892178       0.24719593       0.24954666 </v>
    <v>       0.26179259       0.99944806       0.98939417 </v>
    <v>       0.99858828       0.25296305       0.00169508 </v>
    <v>       0.74666290       0.23975235       0.24569938 </v>
    <v>       0.73967019       0.99620602       0.00552690 </v>
    <v>       0.51265222       0.00048040       0.27741468 </v>
    <v>       0.99135488       0.49742205       0.24368147 </v>
    <v>       0.49843917       0.76312939       0.00758562 </v>
    <v>       0.98609298       0.00413245       0.73921524 </v>
    <v>       0.75693235       0.24917626       0.74987297 </v>
    <v>       0.76427310       0.00554378       0.49113313 </v>
    <v>       0.50040550       0.24628325       0.49011170 </v>
    <v>       0.52522359       0.00203047       0.73989246 </v>
    <v>       0.00177643       0.00118872       0.25047093 </v>
    <v>       0.50485616       0.23930573       0.00607137 </v>
    <v>       0.25392237       0.75040576       0.25000925 </v>
    <v>       0.23925139       0.49966008       0.99562129 </v>
    <v>       0.00332834       0.74044796       0.00478140 </v>
    <v>       0.74900858       0.74415519       0.25270992 </v>
    <v>       0.76234641       0.49228008       0.00622021 </v>
    <v>       0.49705548       0.50260765       0.25129681 </v>
    <v>       0.24892336       0.24567731       0.75372875 </v>
    <v>       0.25115252       0.01980266       0.51272047 </v>
    <v>       0.00453944       0.24615523       0.49999546 </v>
    <v>       0.24160536       0.75780861       0.75133712 </v>
    <v>       0.25587324       0.50091186       0.50223567 </v>
    <v>       0.99756765       0.76142416       0.49873245 </v>
    <v>       0.99898213       0.50050519       0.75348693 </v>
    <v>       0.75083111       0.75362146       0.74735368 </v>
    <v>       0.74264003       0.49461475       0.50664631 </v>
    <v>       0.49395346       0.76652811       0.48567362 </v>
    <v>       0.50387252       0.50307140       0.74166603 </v>
    <v>       0.51261871       0.01166142       0.96582400 </v>
    <v>       0.99783196       0.51695671       0.97779013 </v>
    <v>       0.47633858       0.73508594       0.25806318 </v>
    <v>       0.22496518       0.01388447       0.75023880 </v>
    <v>       0.47763443       0.99442300       0.51526909 </v>
    <v>       0.74017477       0.96936208       0.78407180 </v>
    <v>       0.01454811       0.76833209       0.25477307 </v>
    <v>       0.73964488       0.49754869       0.25251998 </v>
    <v>       0.01328983       0.00810360       0.49571133 </v>
    <v>       0.49730374       0.52064643       0.49081298 </v>
    <v>       0.75285377       0.51591606       0.76374796 </v>
    <v>       0.74467962       0.73682575       0.48880849 </v>
   </varray>
  </structure>
  <varray name="primitive_index" >
   <v type="int" >        1 </v>
   <v type="int" >        2 </v>
   <v type="int" >        3 </v>
   <v type="int" >        4 </v>
   <v type="int" >        5 </v>
   <v type="int" >        6 </v>
   <v type="int" >        7 </v>
   <v type="int" >        8 </v>
   <v type="int" >        9 </v>
   <v type="int" >       10 </v>
   <v type="int" >       11 </v>
   <v type="int" >       12 </v>
   <v type="int" >       13 </v>
   <v type="int" >       14 </v>
   <v type="int" >       15 </v>
   <v type="int" >       16 </v>
   <v type="int" >       17 </v>
   <v type="int" >       18 </v>
   <v type="int" >       19 </v>
   <v type="int" >       20 </v>
   <v type="int" >       21 </v>
   <v type="int" >       22 </v>
   <v type="int" >       23 </v>
   <v type="int" >       24 </v>
   <v type="int" >       25 </v>
   <v type="int" >       26 </v>
   <v type="int" >       27 </v>
   <v type="int" >       28 </v>
   <v type="int" >       29 </v>
   <v type="int" >       30 </v>
   <v type="int" >       31 </v>
   <v type="int" >       32 </v>
   <v type="int" >       33 </v>
   <v type="int" >       34 </v>
   <v type="int" >       35 </v>
   <v type="int" >       36 </v>
   <v type="int" >       37 </v>
   <v type="int" >       38 </v>
   <v type="int" >       39 </v>
   <v type="int" >       40 </v>
   <v type="int" >       41 </v>
   <v type="int" >       42 </v>
   <v type="int" >       43 </v>
   <v type="int" >       44 </v>
   <v type="int" >       45 </v>
   <v type="int" >       46 </v>
   <v type="int" >       47 </v>
   <v type="int" >       48 </v>
   <v type="int" >       49 </v>
   <v type="int" >       50 </v>
   <v type="int" >       51 </v>
   <v type="int" >       52 </v>
   <v type="int" >       53 </v>
   <v type="int" >       54 </v>
   <v type="int" >       55 </v>
   <v type="int" >       56 </v>
   <v type="int" >       57 </v>
   <v type="int" >       58 </v>
   <v type="int" >       59 </v>
   <v type="int" >       60 </v>
   <v type="int" >       61 </v>
   <v type="int" >       62 </v>
   <v type="int" >       63 </v>
   <v type="int" >       64 </v>
  </varray>
 </primitive_cell>
 <kpoints>
  <generation param="Gamma">
   <v type="int" name="divisions">       3        3        3 </v>
   <v name="usershift">      0.00000000       0.00000000       0.00000000 </v>
   <v name="genvec1">      0.33333333       0.00000000       0.00000000 </v>
   <v name="genvec2">     -0.00000000       0.33333333      -0.00000000 </v>
   <v name="genvec3">     -0.00000000       0.00000000       0.33333333 </v>
   <v name="shift">      0.00000000       0.00000000       0.00000000 </v>
  </generation>
  <varray name="kpointlist" >
   <v>       0.00000000       0.00000000       0.00000000 </v>
   <v>       0.33333333       0.00000000       0.00000000 </v>
   <v>      -0.00000000       0.33333333       0.00000000 </v>
   <v>       0.33333333       0.33333333       0.00000000 </v>
   <v>      -0.33333333       0.33333333       0.00000000 </v>
   <v>      -0.00000000       0.00000000       0.33333333 </v>
   <v>       0.33333333       0.00000000       0.33333333 </v>
   <v>      -0.33333333      -0.00000000       0.33333333 </v>
   <v>       0.00000000       0.33333333       0.33333333 </v>
   <v>       0.33333333       0.33333333       0.33333333 </v>
   <v>      -0.33333333       0.33333333       0.33333333 </v>
   <v>      -0.00000000      -0.33333333       0.33333333 </v>
   <v>       0.33333333      -0.33333333       0.33333333 </v>
   <v>      -0.33333333      -0.33333333       0.33333333 </v>
  </varray>
  <varray name="weights" >
   <v>       0.03703704 </v>
   <v>       0.07407407 </v>
   <v>       0.07407407 </v>
   <v>       0.07407407 </v>
   <v>       0.07407407 </v>
   <v>       0.07407407 </v>
   <v>       0.07407407 </v>
   <v>       0.07407407 </v>
   <v>       0.07407407 </v>
   <v>       0.07407407 </v>
   <v>       0.07407407 </v>
   <v>       0.07407407 </v>
   <v>       0.07407407 </v>
   <v>       0.07407407 </v>
  </varray>
 </kpoints>
 <parameters>
  <separator name="general" >
   <i type="string" name="SYSTEM">HECN</i>
   <i type="logical" name="LCOMPAT"> F  </i>
  </separator>
  <separator name="electronic" >
   <i type="string" name="PREC">normal</i>
   <i name="ENMAX">    400.00000000</i>
   <i name="ENAUG">    644.87300000</i>
   <i name="EDIFF">      0.00001000</i>
   <i type="int" name="IALGO">    68</i>
   <i type="int" name="IWAVPR">    11</i>
   <i type="int" name="NBANDS">   280</i>
   <i type="int" name="NBANDSLOW">    -1</i>
   <i type="int" name="NBANDSHIGH">    -1</i>
   <i name="NELECT">    449.00000000</i>
   <i type="int" name="TURBO">     0</i>
   <i type="int" name="IRESTART">     0</i>
   <i type="int" name="NREBOOT">     0</i>
   <i type="int" name="NMIN">     0</i>
   <i name="EREF">      0.00000000</i>
   <separator name="electronic smearing" >
    <i type="int" name="ISMEAR">     0</i>
    <i name="SIGMA">      0.10000000</i>
    <i name="KSPACING">      0.50000000</i>
    <i type="logical" name="KGAMMA"> T  </i>
    <i type="logical" name="KBLOWUP"> T  </i>
   </separator>
   <separator name="electronic projectors" >
    <i type="logical" name="LREAL"> F  </i>
    <v name="ROPT">      0.00000000      0.00000000      0.00000000      0.00000000      0.00000000      0.00000000      0.00000000</v>
    <i type="int" name="LMAXPAW">  -100</i>
    <i type="int" name="LMAXMIX">     2</i>
    <i type="logical" name="NLSPLINE"> F  </i>
   </separator>
   <separator name="electronic startup" >
    <i type="int" name="ISTART">     0</i>
    <i type="int" name="ICHARG">     2</i>
    <i type="int" name="INIWAV">     1</i>
   </separator>
   <separator name="electronic spin" >
    <i type="int" name="ISPIN">     1</i>
    <i type="logical" name="LNONCOLLINEAR"> F  </i>
    <v name="MAGMOM">      1.00000000      1.00000000      1.00000000      1.00000000      1.00000000      1.00000000      1.00000000      1.00000000      1.00000000      1.00000000      1.00000000      1.00000000      1.00000000      1.00000000      1.00000000      1.00000000      1.00000000      1.00000000      1.00000000      1.00000000
      1.00000000      1.00000000      1.00000000      1.00000000      1.00000000      1.00000000      1.00000000      1.00000000      1.00000000      1.00000000      1.00000000      1.00000000      1.00000000      1.00000000      1.00000000      1.00000000      1.00000000      1.00000000      1.00000000      1.00000000
      1.00000000      1.00000000      1.00000000      1.00000000      1.00000000      1.00000000      1.00000000      1.00000000      1.00000000      1.00000000      1.00000000      1.00000000      1.00000000      1.00000000      1.00000000      1.00000000      1.00000000      1.00000000      1.00000000      1.00000000
      1.00000000      1.00000000      1.00000000      1.00000000</v>
    <i name="NUPDOWN">     -1.00000000</i>
    <i type="logical" name="LSORBIT"> F  </i>
    <v name="SAXIS">      0.00000000      0.00000000      1.00000000</v>
    <i type="logical" name="LSPIRAL"> F  </i>
    <v name="QSPIRAL">      0.00000000      0.00000000      0.00000000</v>
    <i type="logical" name="LZEROZ"> F  </i>
   </separator>
   <separator name="electronic exchange-correlation" >
    <i type="logical" name="LASPH"> F  </i>
   </separator>
   <separator name="electronic convergence" >
    <i type="int" name="NELM">    60</i>
    <i type="int" name="NELMDL">    -5</i>
    <i type="int" name="NELMIN">     2</i>
    <i name="ENINI">    400.00000000</i>
    <separator name="electronic convergence detail" >
     <i type="logical" name="LDIAG"> T  </i>
     <i type="logical" name="LSUBROT"> F  </i>
     <i name="WEIMIN">      0.00100000</i>
     <i name="EBREAK">      0.00000001</i>
     <i name="DEPER">      0.30000000</i>
     <i type="int" name="NRMM">     4</i>
     <i name="TIME">      0.40000000</i>
    </separator>
   </separator>
   <separator name="electronic mixer" >
    <i name="AMIX">      0.40000000</i>
    <i name="BMIX">      1.00000000</i>
    <i name="AMIN">      0.10000000</i>
    <i name="AMIX_MAG">      1.60000000</i>
    <i name="BMIX_MAG">      1.00000000</i>
    <separator name="electronic mixer details" >
     <i type="int" name="IMIX">     4</i>
     <i type="logical" name="MIXFIRST"> F  </i>
     <i type="int" name="MAXMIX">   -45</i>
     <i name="WC">    100.00000000</i>
     <i type="int" name="INIMIX">     1</i>
     <i type="int" name="MIXPRE">     1</i>
     <i type="int" name="MREMOVE">     5</i>
    </separator>
   </separator>
   <separator name="electronic dipolcorrection" >
    <i type="logical" name="LDIPOL"> F  </i>
    <i type="logical" name="LMONO"> F  </i>
    <i type="int" name="IDIPOL">     0</i>
    <i name="EPSILON">      1.00000000</i>
    <v name="DIPOL">   -100.00000000   -100.00000000   -100.00000000</v>
    <i name="EFIELD">      0.00000000</i>
    <i type="logical" name="LVACPOTAV"> F  </i>
   </separator>
  </separator>
  <separator name="grids" >
   <i type="int" name="NGX">    48</i>
   <i type="int" name="NGY">    48</i>
   <i type="int" name="NGZ">    48</i>
   <i type="int" name="NGXF">    96</i>
   <i type="int" name="NGYF">    96</i>
   <i type="int" name="NGZF">    96</i>
   <i type="logical" name="ADDGRID"> F  </i>
  </separator>
  <separator name="ionic" >
   <i type="int" name="NSW">   100</i>
   <i type="int" name="IBRION">     2</i>
   <i type="int" name="MDALGO">     0</i>
   <i type="int" name="ISIF">     3</i>
   <i name="PSTRESS">      0.00000000</i>
   <i name="EDIFFG">     -0.01000000</i>
   <i type="int" name="NFREE">     1</i>
   <i name="POTIM">      0.50000000</i>
   <i name="SMASS">     -3.00000000</i>
   <i name="SCALEE">      1.00000000</i>
  </separator>
  <separator name="ionic md" >
   <i name="TEBEG">      0.00010000</i>
   <i name="TEEND">      0.00010000</i>
   <i type="int" name="NBLOCK">     1</i>
   <i type="int" name="KBLOCK">   100</i>
   <i type="int" name="NPACO">   256</i>
   <i name="APACO">     10.00000000</i>
  </separator>
  <separator name="symmetry" >
   <i type="int" name="ISYM">     2</i>
   <i name="SYMPREC">      0.00001000</i>
  </separator>
  <separator name="dos" >
   <i type="int" name="LORBIT">     0</i>
   <v name="RWIGS">     -1.00000000     -1.00000000     -1.00000000     -1.00000000     -1.00000000     -1.00000000     -1.00000000</v>
   <i type="int" name="NEDOS">   301</i>
   <i name="EMIN">     10.00000000</i>
   <i name="EMAX">    -10.00000000</i>
   <i name="EFERMI">      0.00000000</i>
  </separator>
  <separator name="writing" >
   <i type="int" name="NWRITE">     2</i>
   <i type="logical" name="LWAVE"> F  </i>
   <i type="logical" name="LDOWNSAMPLE"> F  </i>
   <i type="logical" name="LCHARG"> F  </i>
   <i type="logical" name="LPARD"> F  </i>
   <i type="logical" name="LVTOT"> F  </i>
   <i type="logical" name="LVHAR"> F  </i>
   <i type="logical" name="LELF"> F  </i>
   <i type="logical" name="LOPTICS"> F  </i>
   <v name="STM">      0.00000000      0.00000000      0.00000000      0.00000000      0.00000000      0.00000000      0.00000000</v>
  </separator>
  <separator name="performance" >
   <i type="int" name="NPAR">    28</i>
   <i type="int" name="NSIM">     4</i>
   <i type="int" name="NBLK">    -1</i>
   <i type="logical" name="LPLANE"> T  </i>
   <i type="logical" name="LSCALAPACK"> T  </i>
   <i type="logical" name="LSCAAWARE"> F  </i>
   <i type="logical" name="LSCALU"> F  </i>
   <i type="logical" name="LASYNC"> F  </i>
   <i type="logical" name="LORBITALREAL"> F  </i>
  </separator>
  <separator name="miscellaneous" >
   <i type="int" name="IDIOT">     3</i>
   <i type="int" name="PHON_NSTRUCT">    -1</i>
   <i type="logical" name="LMUSIC"> F  </i>
   <v name="POMASS">     91.22400000    180.94800000     47.88000000     14.00100000     12.01100000     51.99600000     95.94000000</v>
   <v name="DARWINR">      0.00000000      0.00000000      0.00000000      0.00000000      0.00000000      0.00000000      0.00000000</v>
   <v name="DARWINV">      1.00000000      1.00000000      1.00000000      1.00000000      1.00000000      1.00000000      1.00000000</v>
   <i type="logical" name="LCORR"> T  </i>
  </separator>
  <i type="logical" name="GGA_COMPAT"> T  </i>
  <i type="logical" name="LBERRY"> F  </i>
  <i type="int" name="ICORELEVEL">     0</i>
  <i type="logical" name="LDAU"> F  </i>
  <i type="int" name="I_CONSTRAINED_M">     0</i>
  <separator name="electronic exchange-correlation" >
   <i type="string" name="GGA    ">PE</i>
   <i type="string" name="XC_C">1</i>
   <i type="int" name="VOSKOWN">     0</i>
   <i type="logical" name="LHFCALC"> F  </i>
   <i type="string" name="PRECFOCK"></i>
   <i type="logical" name="LSYMGRAD"> F  </i>
   <i type="logical" name="LHFONE"> F  </i>
   <i type="logical" name="LRHFCALC"> F  </i>
   <i type="logical" name="LTHOMAS"> F  </i>
   <i type="logical" name="LMODELHF"> F  </i>
   <i type="logical" name="LFOCKACE"> F  </i>
   <i name="ENCUT4O">     -1.00000000</i>
   <i type="int" name="EXXOEP">     0</i>
   <i type="int" name="FOURORBIT">     0</i>
   <i name="AEXX">      0.00000000</i>
   <i name="HFALPHA">      0.00000000</i>
   <i name="MCALPHA">      0.00000000</i>
   <i name="ALDAX">      1.00000000</i>
   <i name="AGGAX">      1.00000000</i>
   <i name="AMGGAX">      1.00000000</i>
   <i name="ALDAC">      1.00000000</i>
   <i name="AGGAC">      1.00000000</i>
   <i name="AMGGAC">      1.00000000</i>
   <i type="int" name="NKREDX">     1</i>
   <i type="int" name="NKREDY">     1</i>
   <i type="int" name="NKREDZ">     1</i>
   <i type="logical" name="SHIFTRED"> F  </i>
   <i type="logical" name="ODDONLY"> F  </i>
   <i type="logical" name="EVENONLY"> F  </i>
   <i type="int" name="LMAXFOCK">     0</i>
   <i type="int" name="NMAXFOCKAE">     0</i>
   <i type="logical" name="LFOCKAEDFT"> F  </i>
   <i name="HFSCREEN">      0.00000000</i>
   <i name="HFSCREENC">      0.00000000</i>
   <i type="int" name="NBANDSGWLOW">     0</i>
  </separator>
  <separator name="vdW DFT" >
   <i type="logical" name="LUSE_VDW"> F  </i>
   <i type="int" name="IVDW_NL">    -1</i>
   <i type="logical" name="LSPIN_VDW"> F  </i>
   <i name="ZAB_VDW">     -0.84910000</i>
   <i name="GAMMA_VDW">      1.39626340</i>
   <i name="ALPHA_VDW">      0.00000000</i>
   <i name="PARAM1">      0.12340000</i>
   <i name="PARAM2">      1.00000000</i>
   <i name="BPARAM">      6.30000000</i>
   <i name="CPARAM">      0.00930000</i>
  </separator>
  <separator name="model GW" >
   <i type="int" name="MODEL_GW">     0</i>
   <i name="MODEL_EPS0">      6.57844531</i>
   <i name="MODEL_ALPHA">      1.00000000</i>
  </separator>
  <separator name="linear response parameters" >
   <i type="logical" name="LEPSILON"> F  </i>
   <i type="logical" name="LRPA"> F  </i>
   <i type="logical" name="LNABLA"> F  </i>
   <i type="logical" name="LVEL"> F  </i>
   <i name="CSHIFT">      0.10000000</i>
   <i name="OMEGAMAX">     -1.00000000</i>
   <i name="DEG_THRESHOLD">      0.00200000</i>
   <i name="RTIME">     -0.10000000</i>
   <i name="WPLASMAI">      0.00000000</i>
   <v name="DFIELD">      0.00000000      0.00000000      0.00000000</v>
   <v name="WPLASMA">      0.00000000      0.00000000      0.00000000      0.00000000      0.00000000      0.00000000      0.00000000      0.00000000      0.00000000</v>
  </separator>
  <separator name="orbital magnetization" >
   <i type="logical" name="NUCIND"> F  </i>
   <v name="MAGPOS">      0.00000000      0.00000000      0.00000000</v>
   <i type="logical" name="LNICSALL"> T  </i>
   <i type="logical" name="ORBITALMAG"> F  </i>
   <i type="logical" name="LMAGBLOCH"> F  </i>
   <i type="logical" name="LCHIMAG"> F  </i>
   <i type="logical" name="LGAUGE"> T  </i>
   <i type="int" name="MAGATOM">     0</i>
   <v name="MAGDIPOL">      0.00000000      0.00000000      0.00000000</v>
   <v name="AVECCONST">      0.00000000      0.00000000      0.00000000</v>
  </separator>
  <separator name="response functions" >
   <i type="logical" name="LALL_IN_ONE"> F  </i>
   <i type="int" name="IALL_IN_ONE">    -1</i>
   <i type="int" name="NBANDS_WAVE">    -1</i>
   <i type="logical" name="LFINITE_TEMPERATURE"> F  </i>
   <i type="logical" name="LADDER"> F  </i>
   <i type="logical" name="LRPAFORCE"> F  </i>
   <i type="logical" name="LFXC"> F  </i>
   <i type="logical" name="LHARTREE"> T  </i>
   <i type="int" name="IBSE">     0</i>
   <v type="int" name="KPOINT">    -1     0     0     0</v>
   <i type="logical" name="LTCTC"> F  </i>
   <i type="logical" name="LTCTE"> F  </i>
   <i type="logical" name="LTETE"> F  </i>
   <i type="logical" name="LTRIPLET"> F  </i>
   <i type="logical" name="LFXCEPS"> F  </i>
   <i type="logical" name="LFXHEG"> F  </i>
   <i type="int" name="NATURALO">     2</i>
   <i type="logical" name="LHOLEGF"> F  </i>
   <i type="logical" name="L2ORDER"> F  </i>
   <i type="logical" name="LDMP1"> F  </i>
   <i type="logical" name="LMP2LT"> F  </i>
   <i type="logical" name="LSMP2LT"> F  </i>
   <i type="logical" name="LGWLF"> F  </i>
   <i name="ENCUTGW">     -1.60000002</i>
   <i name="ENCUTGWSOFT">     -1.60000002</i>
   <i name="ENCUTLF">     -1.00000000</i>
   <i type="logical" name="ESF_SPLINES"> F  </i>
   <i name="ESF_CONV">      0.01000000</i>
   <i type="int" name="ESF_NINTER">    15</i>
   <i type="int" name="LMAXMP2">    -1</i>
   <i name="SCISSOR">      0.00000000</i>
   <i type="int" name="NOMEGA">     0</i>
   <i type="int" name="NOMEGAR">     0</i>
   <i type="int" name="NBANDSGW">    -1</i>
   <i type="int" name="NBANDSO">    -1</i>
   <i type="int" name="NBANDSV">    -1</i>
   <i type="int" name="NELMGW">     1</i>
   <i type="int" name="NELMHF">     1</i>
   <i type="int" name="DIM">     3</i>
   <i type="int" name="IESPILON">     4</i>
   <i type="int" name="ANTIRES">     0</i>
   <i name="OMEGAMAX">    -30.00000000</i>
   <i name="OMEGAMIN">    -30.00000000</i>
   <i name="OMEGATL">   -200.00000000</i>
   <i type="int" name="OMEGAGRID">     0</i>
   <i name="CSHIFT">     -0.10000000</i>
   <i type="logical" name="LSELFENERGY"> F  </i>
   <i type="logical" name="LSPECTRAL"> F  </i>
   <i type="logical" name="LSPECTRALGW"> F  </i>
   <i type="logical" name="LSINGLES"> F  </i>
   <i type="logical" name="LFERMIGW"> F  </i>
   <i type="logical" name="ODDONLYGW"> F  </i>
   <i type="logical" name="EVENONLYGW"> F  </i>
   <i type="int" name="NKREDLFX">     1</i>
   <i type="int" name="NKREDLFY">     1</i>
   <i type="int" name="NKREDLFZ">     1</i>
   <i type="int" name="MAXMEM">  2800</i>
   <i type="int" name="TELESCOPE">     0</i>
   <i type="int" name="NTAUPAR">    -1</i>
   <i type="int" name="NOMEGAPAR">    -1</i>
   <i name="DAMP_NEWTON">      0.80000001</i>
   <i name="LAMBDA">      1.00000000</i>
  </separator>
  <separator name="External order field" >
   <i name="OFIELD_KAPPA">      0.00000000</i>
   <v name="OFIELD_K">      0.00000000      0.00000000      0.00000000</v>
   <i name="OFIELD_Q6_NEAR">      0.00000000</i>
   <i name="OFIELD_Q6_FAR">      0.00000000</i>
   <i name="OFIELD_A">      0.00000000</i>
  </separator>
  <separator name="optional k-points parameters" >
   <i type="int" name="KPOINTS_OPT_MODE">     1</i>
   <i type="logical" name="LKPOINTS_OPT"> F  </i>
  </separator>
  <separator name="solvation model" >
   <i type="logical" name="LSOL"> F  </i>
  </separator>
 </parameters>
 <atominfo>
  <atoms>      64 </atoms>
  <types>       7 </types>
  <array name="atoms" >
   <dimension dim="1">ion</dimension>
   <field type="string">element</field>
   <field type="int">atomtype</field>
   <set>
    <rc><c>Zr</c><c>   1</c></rc>
    <rc><c>Zr</c><c>   1</c></rc>
    <rc><c>Zr</c><c>   1</c></rc>
    <rc><c>Zr</c><c>   1</c></rc>
    <rc><c>Zr</c><c>   1</c></rc>
    <rc><c>Zr</c><c>   1</c></rc>
    <rc><c>Zr</c><c>   1</c></rc>
    <rc><c>Ta</c><c>   2</c></rc>
    <rc><c>Ta</c><c>   2</c></rc>
    <rc><c>Ta</c><c>   2</c></rc>
    <rc><c>Ta</c><c>   2</c></rc>
    <rc><c>Ta</c><c>   2</c></rc>
    <rc><c>Ta</c><c>   2</c></rc>
    <rc><c>Ti</c><c>   3</c></rc>
    <rc><c>Ti</c><c>   3</c></rc>
    <rc><c>Ti</c><c>   3</c></rc>
    <rc><c>Ti</c><c>   3</c></rc>
    <rc><c>Ti</c><c>   3</c></rc>
    <rc><c>Ti</c><c>   3</c></rc>
    <rc><c>Ti</c><c>   3</c></rc>
    <rc><c>N </c><c>   4</c></rc>
    <rc><c>N </c><c>   4</c></rc>
    <rc><c>N </c><c>   4</c></rc>
    <rc><c>N </c><c>   4</c></rc>
    <rc><c>N </c><c>   4</c></rc>
    <rc><c>N </c><c>   4</c></rc>
    <rc><c>N </c><c>   4</c></rc>
    <rc><c>N </c><c>   4</c></rc>
    <rc><c>N </c><c>   4</c></rc>
    <rc><c>N </c><c>   4</c></rc>
    <rc><c>N </c><c>   4</c></rc>
    <rc><c>N </c><c>   4</c></rc>
    <rc><c>N </c><c>   4</c></rc>
    <rc><c>C </c><c>   5</c></rc>
    <rc><c>C </c><c>   5</c></rc>
    <rc><c>C </c><c>   5</c></rc>
    <rc><c>C </c><c>   5</c></rc>
    <rc><c>C </c><c>   5</c></rc>
    <rc><c>C </c><c>   5</c></rc>
    <rc><c>C </c><c>   5</c></rc>
    <rc><c>C </c><c>   5</c></rc>
    <rc><c>C </c><c>   5</c></rc>
    <rc><c>C </c><c>   5</c></rc>
    <rc><c>C </c><c>   5</c></rc>
    <rc><c>C </c><c>   5</c></rc>
    <rc><c>C </c><c>   5</c></rc>
    <rc><c>C </c><c>   5</c></rc>
    <rc><c>C </c><c>   5</c></rc>
    <rc><c>C </c><c>   5</c></rc>
    <rc><c>C </c><c>   5</c></rc>
    <rc><c>C </c><c>   5</c></rc>
    <rc><c>C </c><c>   5</c></rc>
    <rc><c>Cr</c><c>   6</c></rc>
    <rc><c>Cr</c><c>   6</c></rc>
    <rc><c>Cr</c><c>   6</c></rc>
    <rc><c>Cr</c><c>   6</c></rc>
    <rc><c>Cr</c><c>   6</c></rc>
    <rc><c>Cr</c><c>   6</c></rc>
    <rc><c>Mo</c><c>   7</c></rc>
    <rc><c>Mo</c><c>   7</c></rc>
    <rc><c>Mo</c><c>   7</c></rc>
    <rc><c>Mo</c><c>   7</c></rc>
    <rc><c>Mo</c><c>   7</c></rc>
    <rc><c>Mo</c><c>   7</c></rc>
   </set>
  </array>
  <array name="atomtypes" >
   <dimension dim="1">type</dimension>
   <field type="int">atomspertype</field>
   <field type="string">element</field>
   <field>mass</field>
   <field>valence</field>
   <field type="string">pseudopotential</field>
   <set>
    <rc><c>   7</c><c>Zr</c><c>     91.22400000</c><c>      4.00000000</c><c> PAW_PBE Zr 08Apr2002                   </c></rc>
    <rc><c>   6</c><c>Ta</c><c>    180.94800000</c><c>     11.00000000</c><c> PAW_PBE Ta_pv 07Sep2000                </c></rc>
    <rc><c>   7</c><c>Ti</c><c>     47.88000000</c><c>     10.00000000</c><c> PAW_PBE Ti_pv 07Sep2000                </c></rc>
    <rc><c>  13</c><c>N </c><c>     14.00100000</c><c>      5.00000000</c><c> PAW_PBE N 08Apr2002                    </c></rc>
    <rc><c>  19</c><c>C </c><c>     12.01100000</c><c>      4.00000000</c><c> PAW_PBE C 08Apr2002                    </c></rc>
    <rc><c>   6</c><c>Cr</c><c>     51.99600000</c><c>     12.00000000</c><c> PAW_PBE Cr_pv 07Sep2000                </c></rc>
    <rc><c>   6</c><c>Mo</c><c>     95.94000000</c><c>     12.00000000</c><c> PAW_PBE Mo_pv 08Apr2002                </c></rc>
   </set>
  </array>
 </atominfo>
 <structure name="initialpos" >
  <crystal>
   <varray name="basis" >
    <v>       8.92725901       0.01559320      -0.02576126 </v>
    <v>       0.02203997       8.87774864       0.00520655 </v>
    <v>       0.00618445      -0.01017501       8.85384110 </v>
   </varray>
   <i name="volume">    701.70083301 </i>
   <varray name="rec_basis" >
    <v>       0.11201672      -0.00027805      -0.00007856 </v>
    <v>      -0.00019638       0.11264158       0.00012959 </v>
    <v>       0.00032604      -0.00006705       0.11294502 </v>
   </varray>
  </crystal>
  <varray name="positions" >
   <v>       0.00206397       0.99818006       0.99403474 </v>
   <v>       0.27131913       0.99906855       0.24622017 </v>
   <v>       0.24656926       0.49758658       0.24829092 </v>
   <v>       0.49853096       0.50007106       0.00030698 </v>
   <v>       0.50453600       0.24613869       0.74135746 </v>
   <v>       0.00010846       0.50270215       0.50068440 </v>
   <v>       0.49401580       0.75832484       0.74818695 </v>
   <v>       0.98961284       0.23882842       0.24741755 </v>
   <v>       0.75318861       0.74486705       0.01057399 </v>
   <v>       0.00231499       0.24932258       0.75380963 </v>
   <v>       0.75202996       0.24343894       0.49760192 </v>
   <v>       0.99973058       0.74969211       0.74973622 </v>
   <v>       0.24988590       0.49301303       0.75007937 </v>
   <v>       0.26982650       0.24115771       0.00235785 </v>
   <v>       0.51367489       0.25053523       0.25245232 </v>
   <v>       0.74242024       0.98945331       0.25088267 </v>
   <v>       0.73985300       0.24040118       0.99982446 </v>
   <v>       0.24649302       0.74544303       0.99594345 </v>
   <v>       0.25002024       0.24580789       0.50143456 </v>
   <v>       0.24942692       0.75328574       0.50964655 </v>
   <v>       0.24892178       0.24719593       0.24954666 </v>
   <v>       0.26179259       0.99944806       0.98939417 </v>
   <v>       0.99858828       0.25296305       0.00169508 </v>
   <v>       0.74666290       0.23975235       0.24569938 </v>
   <v>       0.73967019       0.99620602       0.00552690 </v>
   <v>       0.51265222       0.00048040       0.27741468 </v>
   <v>       0.99135488       0.49742205       0.24368147 </v>
   <v>       0.49843917       0.76312939       0.00758562 </v>
   <v>       0.98609298       0.00413245       0.73921524 </v>
   <v>       0.75693235       0.24917626       0.74987297 </v>
   <v>       0.76427310       0.00554378       0.49113313 </v>
   <v>       0.50040550       0.24628325       0.49011170 </v>
   <v>       0.52522359       0.00203047       0.73989246 </v>
   <v>       0.00177643       0.00118872       0.25047093 </v>
   <v>       0.50485616       0.23930573       0.00607137 </v>
   <v>       0.25392237       0.75040576       0.25000925 </v>
   <v>       0.23925139       0.49966008       0.99562129 </v>
   <v>       0.00332834       0.74044796       0.00478140 </v>
   <v>       0.74900858       0.74415519       0.25270992 </v>
   <v>       0.76234641       0.49228008       0.00622021 </v>
   <v>       0.49705548       0.50260765       0.25129681 </v>
   <v>       0.24892336       0.24567731       0.75372875 </v>
   <v>       0.25115252       0.01980266       0.51272047 </v>
   <v>       0.00453944       0.24615523       0.49999546 </v>
   <v>       0.24160536       0.75780861       0.75133712 </v>
   <v>       0.25587324       0.50091186       0.50223567 </v>
   <v>       0.99756765       0.76142416       0.49873245 </v>
   <v>       0.99898213       0.50050519       0.75348693 </v>
   <v>       0.75083111       0.75362146       0.74735368 </v>
   <v>       0.74264003       0.49461475       0.50664631 </v>
   <v>       0.49395346       0.76652811       0.48567362 </v>
   <v>       0.50387252       0.50307140       0.74166603 </v>
   <v>       0.51261871       0.01166142       0.96582400 </v>
   <v>       0.99783196       0.51695671       0.97779013 </v>
   <v>       0.47633858       0.73508594       0.25806318 </v>
   <v>       0.22496518       0.01388447       0.75023880 </v>
   <v>       0.47763443       0.99442300       0.51526909 </v>
   <v>       0.74017477       0.96936208       0.78407180 </v>
   <v>       0.01454811       0.76833209       0.25477307 </v>
   <v>       0.73964488       0.49754869       0.25251998 </v>
   <v>       0.01328983       0.00810360       0.49571133 </v>
   <v>       0.49730374       0.52064643       0.49081298 </v>
   <v>       0.75285377       0.51591606       0.76374796 </v>
   <v>       0.74467962       0.73682575       0.48880849 </v>
  </varray>
 </structure>
 <calculation>
  <scstep>
   <time name="dav">   17.49   17.67</time>
   <time name="total">   17.53   17.72</time>
   <energy>
    <i name="alphaZ">   3257.87790853 </i>
    <i name="ewald"> -31889.27050446 </i>
    <i name="hartreedc">  -7904.13941806 </i>
    <i name="XCdc">    789.35826005 </i>
    <i name="pawpsdc">  24479.44496326 </i>
    <i name="pawaedc"> -23864.15554739 </i>
    <i name="eentropy">     -0.09604620 </i>
    <i name="bandstr">   2681.47975024 </i>
    <i name="atom">  37940.95045827 </i>
    <i name="e_fr_energy">   5491.44982423 </i>
    <i name="e_wo_entrp">   5491.54587044 </i>
    <i name="e_0_energy">   5491.49784733 </i>
   </energy>
  </scstep>
  <scstep>
   <time name="dav">   16.76   17.44</time>
   <time name="total">   16.76   17.44</time>
   <energy>
    <i name="e_fr_energy">    236.51803446 </i>
    <i name="e_wo_entrp">    236.67563967 </i>
    <i name="e_0_energy">    236.59683706 </i>
   </energy>
  </scstep>
  <scstep>
   <time name="dav">   23.41   23.88</time>
   <time name="total">   23.41   23.88</time>
   <energy>
    <i name="e_fr_energy">   -677.08355177 </i>
    <i name="e_wo_entrp">   -676.97601729 </i>
    <i name="e_0_energy">   -677.02978453 </i>
   </energy>
  </scstep>
  <scstep>
   <time name="dav">   24.59   25.02</time>
   <time name="total">   24.59   25.02</time>
   <energy>
    <i name="e_fr_energy">   -776.65627681 </i>
    <i name="e_wo_entrp">   -776.54330957 </i>
    <i name="e_0_energy">   -776.59979319 </i>
   </energy>
  </scstep>
  <scstep>
   <time name="dav">   23.62   24.13</time>
   <time name="total">   23.79   24.32</time>
   <energy>
    <i name="e_fr_energy">   -783.10882418 </i>
    <i name="e_wo_entrp">   -782.99480328 </i>
    <i name="e_0_energy">   -783.05181373 </i>
   </energy>
  </scstep>
  <scstep>
   <time name="diag">    1.17    1.18</time>
   <time name="diis">   14.61   14.76</time>
   <time name="orth">    0.28    0.28</time>
   <time name="total">   16.24   16.41</time>
   <energy>
    <i name="e_fr_energy">   -809.01601552 </i>
    <i name="e_wo_entrp">   -808.88283204 </i>
    <i name="e_0_energy">   -808.94942378 </i>
   </energy>
  </scstep>
  <scstep>
   <time name="diag">    1.15    1.16</time>
   <time name="diis">   14.22   14.35</time>
   <time name="orth">    0.28    0.28</time>
   <time name="total">   15.83   15.97</time>
   <energy>
    <i name="e_fr_energy">   -635.89587241 </i>
    <i name="e_wo_entrp">   -635.75023405 </i>
    <i name="e_0_energy">   -635.82305323 </i>
   </energy>
  </scstep>
  <scstep>
   <time name="diag">    1.15    1.16</time>
   <time name="diis">   15.61   15.79</time>
   <time name="orth">    0.27    0.28</time>
   <time name="total">   17.22   17.41</time>
   <energy>
    <i name="e_fr_energy">   -643.58097175 </i>
    <i name="e_wo_entrp">   -643.44882613 </i>
    <i name="e_0_energy">   -643.51489894 </i>
   </energy>
  </scstep>
  <scstep>
   <time name="diag">    1.17    1.18</time>
   <time name="diis">   15.43   15.59</time>
   <time name="orth">    0.28    0.28</time>
   <time name="total">   17.07   17.23</time>
   <energy>
    <i name="e_fr_energy">   -638.52028841 </i>
    <i name="e_wo_entrp">   -638.39341530 </i>
    <i name="e_0_energy">   -638.45685186 </i>
   </energy>
  </scstep>
  <scstep>
   <time name="diag">    1.16    1.16</time>
   <time name="diis">   15.26   15.48</time>
   <time name="orth">    0.28    0.28</time>
   <time name="total">   16.87   17.11</time>
   <energy>
    <i name="e_fr_energy">   -634.77260957 </i>
    <i name="e_wo_entrp">   -634.64547977 </i>
    <i name="e_0_energy">   -634.70904467 </i>
   </energy>
  </scstep>
  <scstep>
   <time name="diag">    1.20    1.21</time>
   <time name="diis">   14.39   14.55</time>
   <time name="orth">    0.28    0.28</time>
   <time name="total">   16.08   16.26</time>
   <energy>
    <i name="e_fr_energy">   -634.86551569 </i>
    <i name="e_wo_entrp">   -634.72920291 </i>
    <i name="e_0_energy">   -634.79735930 </i>
   </energy>
  </scstep>
  <scstep>
   <time name="diag">    1.15    1.16</time>
   <time name="diis">   14.42   14.63</time>
   <time name="orth">    0.27    0.28</time>
   <time name="total">   16.03   16.26</time>
   <energy>
    <i name="e_fr_energy">   -633.05867748 </i>
    <i name="e_wo_entrp">   -632.93077218 </i>
    <i name="e_0_energy">   -632.99472483 </i>
   </energy>
  </scstep>
  <scstep>
   <time name="diag">    1.22    1.23</time>
   <time name="diis">   15.18   15.36</time>
   <time name="orth">    0.28    0.28</time>
   <time name="total">   16.85   17.06</time>
   <energy>
    <i name="e_fr_energy">   -634.13316471 </i>
    <i name="e_wo_entrp">   -634.01682756 </i>
    <i name="e_0_energy">   -634.07499613 </i>
   </energy>
  </scstep>
  <scstep>
   <time name="diag">    1.17    1.18</time>
   <time name="diis">   14.96   15.09</time>
   <time name="orth">    0.31    0.31</time>
   <time name="total">   16.62   16.76</time>
   <energy>
    <i name="e_fr_energy">   -633.08663971 </i>
    <i name="e_wo_entrp">   -632.95599786 </i>
    <i name="e_0_energy">   -633.02131878 </i>
   </energy>
  </scstep>
  <scstep>
   <time name="diag">    1.16    1.17</time>
   <time name="diis">   14.52   14.82</time>
   <time name="orth">    0.28    0.28</time>
   <time name="total">   16.14   16.45</time>
   <energy>
    <i name="e_fr_energy">   -633.04521643 </i>
    <i name="e_wo_entrp">   -632.91414668 </i>
    <i name="e_0_energy">   -632.97968155 </i>
   </energy>
  </scstep>
  <scstep>
   <time name="diag">    1.47    1.49</time>
   <time name="diis">   15.15   15.37</time>
   <time name="orth">    0.33    0.33</time>
   <time name="total">   17.12   17.37</time>
   <energy>
    <i name="e_fr_energy">   -632.83866713 </i>
    <i name="e_wo_entrp">   -632.70211730 </i>
    <i name="e_0_energy">   -632.77039221 </i>
   </energy>
  </scstep>
  <scstep>
   <time name="diag">    1.18    1.19</time>
   <time name="diis">   16.14   16.38</time>
   <time name="orth">    0.28    0.28</time>
   <time name="total">   17.77   18.02</time>
   <energy>
    <i name="e_fr_energy">   -632.72242502 </i>
    <i name="e_wo_entrp">   -632.58684691 </i>
    <i name="e_0_energy">   -632.65463596 </i>
   </energy>
  </scstep>
  <scstep>
   <time name="diag">    1.17    1.18</time>
   <time name="diis">   15.74   15.95</time>
   <time name="orth">    0.48    0.49</time>
   <time name="total">   17.57   17.80</time>
   <energy>
    <i name="e_fr_energy">   -632.72646484 </i>
    <i name="e_wo_entrp">   -632.59213493 </i>
    <i name="e_0_energy">   -632.65929988 </i>
   </energy>
  </scstep>
  <scstep>
   <time name="diag">    1.22    1.23</time>
   <time name="diis">   15.67   15.87</time>
   <time name="orth">    0.28    0.28</time>
   <time name="total">   17.36   17.56</time>
   <energy>
    <i name="e_fr_energy">   -632.73154048 </i>
    <i name="e_wo_entrp">   -632.59704225 </i>
    <i name="e_0_energy">   -632.66429136 </i>
   </energy>
  </scstep>
  <scstep>
   <time name="diag">    1.17    1.18</time>
   <time name="diis">   15.03   15.15</time>
   <time name="orth">    0.27    0.28</time>
   <time name="total">   16.67   16.80</time>
   <energy>
    <i name="e_fr_energy">   -632.72693910 </i>
    <i name="e_wo_entrp">   -632.59282794 </i>
    <i name="e_0_energy">   -632.65988352 </i>
   </energy>
  </scstep>
  <scstep>
   <time name="diag">    1.22    1.24</time>
   <time name="diis">   14.88   15.03</time>
   <time name="orth">    0.33    0.33</time>
   <time name="total">   16.61   16.79</time>
   <energy>
    <i name="e_fr_energy">   -632.72648755 </i>
    <i name="e_wo_entrp">   -632.59269432 </i>
    <i name="e_0_energy">   -632.65959094 </i>
   </energy>
  </scstep>
  <scstep>
   <time name="diag">    1.22    1.23</time>
   <time name="diis">   16.38   16.59</time>
   <time name="orth">    0.28    0.28</time>
   <time name="total">   18.05   18.28</time>
   <energy>
    <i name="e_fr_energy">   -632.72776626 </i>
    <i name="e_wo_entrp">   -632.59380931 </i>
    <i name="e_0_energy">   -632.66078778 </i>
   </energy>
  </scstep>
  <scstep>
   <time name="diag">    1.17    1.18</time>
   <time name="diis">   13.84   13.96</time>
   <time name="orth">    0.28    0.28</time>
   <time name="total">   15.46   15.59</time>
   <energy>
    <i name="e_fr_energy">   -632.72842942 </i>
    <i name="e_wo_entrp">   -632.59432345 </i>
    <i name="e_0_energy">   -632.66137643 </i>
   </energy>
  </scstep>
  <scstep>
   <time name="diag">    1.18    1.19</time>
   <time name="diis">   12.46   12.62</time>
   <time name="orth">    0.28    0.29</time>
   <time name="total">   14.10   14.28</time>
   <energy>
    <i name="e_fr_energy">   -632.72884493 </i>
    <i name="e_wo_entrp">   -632.59472131 </i>
    <i name="e_0_energy">   -632.66178312 </i>
   </energy>
  </scstep>
  <scstep>
   <time name="diag">    1.15    1.16</time>
   <time name="diis">   10.68   10.78</time>
   <time name="orth">    0.30    0.30</time>
   <time name="total">   12.31   12.42</time>
   <energy>
    <i name="e_fr_energy">   -632.72910213 </i>
    <i name="e_wo_entrp">   -632.59496291 </i>
    <i name="e_0_energy">   -632.66203252 </i>
   </energy>
  </scstep>
  <scstep>
   <time name="diag">    1.24    1.26</time>
   <time name="diis">    9.90   10.04</time>
   <time name="orth">    0.28    0.28</time>
   <time name="total">   11.61   11.76</time>
   <energy>
    <i name="e_fr_energy">   -632.72923527 </i>
    <i name="e_wo_entrp">   -632.59508735 </i>
    <i name="e_0_energy">   -632.66216131 </i>
   </energy>
  </scstep>
  <scstep>
   <time name="diag">    1.15    1.16</time>
   <time name="diis">   10.23   10.37</time>
   <time name="orth">    0.28    0.28</time>
   <time name="total">   11.88   12.04</time>
   <energy>
    <i name="e_fr_energy">   -632.72932700 </i>
    <i name="e_wo_entrp">   -632.59517362 </i>
    <i name="e_0_energy">   -632.66225031 </i>
   </energy>
  </scstep>
  <scstep>
   <time name="diag">    1.15    1.16</time>
   <time name="diis">    9.83    9.93</time>
   <time name="orth">    0.28    0.28</time>
   <time name="total">   11.44   11.55</time>
   <energy>
    <i name="e_fr_energy">   -632.72938577 </i>
    <i name="e_wo_entrp">   -632.59523662 </i>
    <i name="e_0_energy">   -632.66231119 </i>
   </energy>
  </scstep>
  <scstep>
   <time name="diag">    1.26    1.28</time>
   <time name="diis">    7.86    7.95</time>
   <time name="orth">    0.44    0.44</time>
   <time name="total">    9.78    9.90</time>
   <energy>
    <i name="e_fr_energy">   -632.72941903 </i>
    <i name="e_wo_entrp">   -632.59526139 </i>
    <i name="e_0_energy">   -632.66234021 </i>
   </energy>
  </scstep>
  <scstep>
   <time name="diag">    1.22    1.24</time>
   <time name="diis">    7.71    7.78</time>
   <time name="orth">    0.28    0.29</time>
   <time name="total">    9.40    9.49</time>
   <energy>
    <i name="e_fr_energy">   -632.72944019 </i>
    <i name="e_wo_entrp">   -632.59527411 </i>
    <i name="e_0_energy">   -632.66235715 </i>
   </energy>
  </scstep>
  <scstep>
   <time name="diag">    1.15    1.16</time>
   <time name="diis">    7.64    7.71</time>
   <time name="orth">    0.30    0.30</time>
   <time name="total">    9.27    9.36</time>
   <energy>
    <i name="e_fr_energy">   -632.72945418 </i>
    <i name="e_wo_entrp">   -632.59528189 </i>
    <i name="e_0_energy">   -632.66236803 </i>
   </energy>
  </scstep>
  <scstep>
   <time name="diag">    1.17    1.18</time>
   <time name="diis">    7.52    7.59</time>
   <time name="orth">    0.28    0.28</time>
   <time name="total">    9.00    9.08</time>
   <energy>
    <i name="alphaZ">   3257.87790853 </i>
    <i name="ewald"> -31889.27050446 </i>
    <i name="hartreedc">  -7466.61073750 </i>
    <i name="XCdc">    787.22520617 </i>
    <i name="pawpsdc">  26061.24922632 </i>
    <i name="pawaedc"> -25531.28291739 </i>
    <i name="eentropy">     -0.13417427 </i>
    <i name="bandstr">  -3792.73392895 </i>
    <i name="atom">  37940.95045827 </i>
    <i name="e_fr_energy">   -632.72946327 </i>
    <i name="e_wo_entrp">   -632.59528900 </i>
    <i name="e_0_energy">   -632.66237614 </i>
   </energy>
  </scstep>
  <structure>
   <crystal>
    <varray name="basis" >
     <v>       8.92725901       0.01559320      -0.02576126 </v>
     <v>       0.02203997       8.87774864       0.00520655 </v>
     <v>       0.00618445      -0.01017501       8.85384110 </v>
    </varray>
    <i name="volume">    701.70083301 </i>
    <varray name="rec_basis" >
     <v>       0.11201672      -0.00027805      -0.00007856 </v>
     <v>      -0.00019638       0.11264158       0.00012959 </v>
     <v>       0.00032604      -0.00006705       0.11294502 </v>
    </varray>
   </crystal>
   <varray name="positions" >
    <v>       0.00206397       0.99818006       0.99403474 </v>
    <v>       0.27131913       0.99906855       0.24622017 </v>
    <v>       0.24656926       0.49758658       0.24829092 </v>
    <v>       0.49853096       0.50007106       0.00030698 </v>
    <v>       0.50453600       0.24613869       0.74135746 </v>
    <v>       0.00010846       0.50270215       0.50068440 </v>
    <v>       0.49401580       0.75832484       0.74818695 </v>
    <v>       0.98961284       0.23882842       0.24741755 </v>
    <v>       0.75318861       0.74486705       0.01057399 </v>
    <v>       0.00231499       0.24932258       0.75380963 </v>
    <v>       0.75202996       0.24343894       0.49760192 </v>
    <v>       0.99973058       0.74969211       0.74973622 </v>
    <v>       0.24988590       0.49301303       0.75007937 </v>
    <v>       0.26982650       0.24115771       0.00235785 </v>
    <v>       0.51367489       0.25053523       0.25245232 </v>
    <v>       0.74242024       0.98945331       0.25088267 </v>
    <v>       0.73985300       0.24040118       0.99982446 </v>
    <v>       0.24649302       0.74544303       0.99594345 </v>
    <v>       0.25002024       0.24580789       0.50143456 </v>
    <v>       0.24942692       0.75328574       0.50964655 </v>
    <v>       0.24892178       0.24719593       0.24954666 </v>
    <v>       0.26179259       0.99944806       0.98939417 </v>
    <v>       0.99858828       0.25296305       0.00169508 </v>
    <v>       0.74666290       0.23975235       0.24569938 </v>
    <v>       0.73967019       0.99620602       0.00552690 </v>
    <v>       0.51265222       0.00048040       0.27741468 </v>
    <v>       0.99135488       0.49742205       0.24368147 </v>
    <v>       0.49843917       0.76312939       0.00758562 </v>
    <v>       0.98609298       0.00413245       0.73921524 </v>
    <v>       0.75693235       0.24917626       0.74987297 </v>
    <v>       0.76427310       0.00554378       0.49113313 </v>
    <v>       0.50040550       0.24628325       0.49011170 </v>
    <v>       0.52522359       0.00203047       0.73989246 </v>
    <v>       0.00177643       0.00118872       0.25047093 </v>
    <v>       0.50485616       0.23930573       0.00607137 </v>
    <v>       0.25392237       0.75040576       0.25000925 </v>
    <v>       0.23925139       0.49966008       0.99562129 </v>
    <v>       0.00332834       0.74044796       0.00478140 </v>
    <v>       0.74900858       0.74415519       0.25270992 </v>
    <v>       0.76234641       0.49228008       0.00622021 </v>
    <v>       0.49705548       0.50260765       0.25129681 </v>
    <v>       0.24892336       0.24567731       0.75372875 </v>
    <v>       0.25115252       0.01980266       0.51272047 </v>
    <v>       0.00453944       0.24615523       0.49999546 </v>
    <v>       0.24160536       0.75780861       0.75133712 </v>
    <v>       0.25587324       0.50091186       0.50223567 </v>
    <v>       0.99756765       0.76142416       0.49873245 </v>
    <v>       0.99898213       0.50050519       0.75348693 </v>
    <v>       0.75083111       0.75362146       0.74735368 </v>
    <v>       0.74264003       0.49461475       0.50664631 </v>
    <v>       0.49395346       0.76652811       0.48567362 </v>
    <v>       0.50387252       0.50307140       0.74166603 </v>
    <v>       0.51261871       0.01166142       0.96582400 </v>
    <v>       0.99783196       0.51695671       0.97779013 </v>
    <v>       0.47633858       0.73508594       0.25806318 </v>
    <v>       0.22496518       0.01388447       0.75023880 </v>
    <v>       0.47763443       0.99442300       0.51526909 </v>
    <v>       0.74017477       0.96936208       0.78407180 </v>
    <v>       0.01454811       0.76833209       0.25477307 </v>
    <v>       0.73964488       0.49754869       0.25251998 </v>
    <v>       0.01328983       0.00810360       0.49571133 </v>
    <v>       0.49730374       0.52064643       0.49081298 </v>
    <v>       0.75285377       0.51591606       0.76374796 </v>
    <v>       0.74467962       0.73682575       0.48880849 </v>
   </varray>
  </structure>
  <varray name="forces" >
   <v>       0.17040948      -0.41976118       0.22817542 </v>
   <v>      -0.35062102       0.36064994       0.11547246 </v>
   <v>      -0.47764732      -0.29070926      -0.18907598 </v>
   <v>       0.42116973       0.07975869       0.29287663 </v>
   <v>       0.36055157       0.09197251       0.05548961 </v>
   <v>      -0.57293506      -0.15879215      -0.16683932 </v>
   <v>       0.59273485       0.20274457       0.00475298 </v>
   <v>      -0.07607403       0.32013542       0.10837445 </v>
   <v>       0.28086029      -0.09065207       0.09417071 </v>
   <v>      -0.09389081       0.14734230      -0.15314924 </v>
   <v>       0.12192212      -0.07026575       0.13517411 </v>
   <v>      -0.25552627       0.04173531      -0.10454562 </v>
   <v>      -0.02832607      -0.12955932       0.19060564 </v>
   <v>      -0.46212126      -0.13006579      -0.88476400 </v>
   <v>       0.10417342       0.32995322       0.33923638 </v>
   <v>      -0.63118946       0.02189396       0.66056448 </v>
   <v>       0.11094930       0.23450401      -0.11412939 </v>
   <v>      -0.13531067       0.23199477       0.07595762 </v>
   <v>      -0.00671762       0.79984286       0.28568548 </v>
   <v>      -0.23226419       0.68294564      -0.76890899 </v>
   <v>       0.00065010       0.05931985      -0.12181655 </v>
   <v>       0.04938756       0.12729043       0.28602752 </v>
   <v>       0.04535311       0.06211013      -0.19076559 </v>
   <v>       0.26982097      -0.19571143       0.19848770 </v>
   <v>       0.08378884      -0.11392904      -0.07862942 </v>
   <v>       0.39125251       0.04482645      -0.19747010 </v>
   <v>       0.31127568      -0.27576671       0.00032588 </v>
   <v>       0.12690222      -0.02775622      -0.09188627 </v>
   <v>       0.05018266       0.01839544       0.44718147 </v>
   <v>       0.06623200      -0.32661593      -0.12380403 </v>
   <v>      -0.41742063       0.29102543      -0.27145511 </v>
   <v>       0.35279268      -0.07261049      -0.12390915 </v>
   <v>       0.43041507      -0.18418545       0.35216052 </v>
   <v>      -0.24676749       0.03024866       0.01464051 </v>
   <v>      -0.28244290      -0.13445036      -0.24212643 </v>
   <v>       0.16974370      -0.07583515       0.12270559 </v>
   <v>       0.00503147       0.00938965      -0.30470097 </v>
   <v>      -0.24330290      -0.00936732      -0.38154673 </v>
   <v>      -0.22029460       0.20608469      -0.22772167 </v>
   <v>       0.12171362       0.24347922      -0.14406476 </v>
   <v>       0.54940949      -0.00116911       0.38453501 </v>
   <v>      -0.29069569       0.12189360      -0.16204746 </v>
   <v>       0.98163084      -2.71378275       0.18758885 </v>
   <v>      -0.32998849       0.52904701       0.02160274 </v>
   <v>      -0.16590367      -0.17212647      -0.01010519 </v>
   <v>      -0.09870427       0.32548272       0.35308578 </v>
   <v>       0.18857675      -0.36936979       0.24264707 </v>
   <v>       0.28444891       0.06627673       0.43987525 </v>
   <v>       0.06907754       0.38787885       0.40528989 </v>
   <v>      -0.12788949       0.27682817      -0.25975786 </v>
   <v>       0.21322094      -0.03451978      -0.03300760 </v>
   <v>      -0.39817104      -0.07966742       0.12551570 </v>
   <v>       0.10946285      -0.09713373      -0.27363345 </v>
   <v>      -0.21661079      -0.14935300       0.13440566 </v>
   <v>      -0.09945350      -0.21955034       0.18662704 </v>
   <v>      -0.24599133       0.43299110      -0.41017630 </v>
   <v>      -1.37869111      -0.02739830       0.10946605 </v>
   <v>      -0.38353277      -0.18688272      -0.16377733 </v>
   <v>       0.28595761       0.16735450       0.28865422 </v>
   <v>      -0.68985877       0.12384728       0.28658365 </v>
   <v>       0.83645302      -0.29009939      -0.31523599 </v>
   <v>       0.83078840       0.09662636      -0.62091158 </v>
   <v>       0.17256019       0.19919055      -0.09316119 </v>
   <v>      -0.00055626      -0.31797361       0.04918119 </v>
  </varray>
  <varray name="stress" >
   <v>     -95.72029812       3.85184224       3.63461470 </v>
   <v>       3.85184175     -59.50863707      -0.94045250 </v>
   <v>       3.63461510      -0.94045244     -65.06999204 </v>
  </varray>
  <energy>
   <i name="e_fr_energy">   -632.72946327 </i>
   <i name="e_wo_entrp">   -632.59528900 </i>
   <i name="e_0_energy">   -632.66237614 </i>
  </energy>
  <time name="totalsc">  537.19  544.45</time>
 </calculation>
 <calculation>
  <scstep>
   <time name="dav">   22.87   23.07</time>
   <time name="total">   23.05   23.25</time>
   <energy>
    <i name="alphaZ">   3506.95325413 </i>
    <i name="ewald"> -32640.14767652 </i>
    <i name="hartreedc">  -7688.94870769 </i>
    <i name="XCdc">    828.16523035 </i>
    <i name="pawpsdc">  26061.26753049 </i>
    <i name="pawaedc"> -25531.30119228 </i>
    <i name="eentropy">     -0.09491842 </i>
    <i name="bandstr">  -3125.53128419 </i>
    <i name="atom">  37940.95045827 </i>
    <i name="e_fr_energy">   -648.68730586 </i>
    <i name="e_wo_entrp">   -648.59238744 </i>
    <i name="e_0_energy">   -648.63984665 </i>
   </energy>
  </scstep>
  <scstep>
   <time name="diag">    1.24    1.25</time>
   <time name="diis">   12.51   12.67</time>
   <time name="orth">    0.28    0.28</time>
   <time name="total">   14.21   14.38</time>
   <energy>
    <i name="e_fr_energy">   -720.49818991 </i>
    <i name="e_wo_entrp">   -720.39258424 </i>
    <i name="e_0_energy">   -720.44538708 </i>
   </energy>
  </scstep>
  <scstep>
   <time name="diag">    1.17    1.18</time>
   <time name="diis">   12.86   13.03</time>
   <time name="orth">    0.28    0.28</time>
   <time name="total">   14.50   14.67</time>
   <energy>
    <i name="e_fr_energy">   -633.20224294 </i>
    <i name="e_wo_entrp">   -633.09730576 </i>
    <i name="e_0_energy">   -633.14977435 </i>
   </energy>
  </scstep>
  <scstep>
   <time name="diag">    1.16    1.16</time>
   <time name="diis">   15.48   15.58</time>
   <time name="orth">    0.28    0.28</time>
   <time name="total">   17.09   17.20</time>
   <energy>
    <i name="e_fr_energy">   -637.35983911 </i>
    <i name="e_wo_entrp">   -637.22835968 </i>
    <i name="e_0_energy">   -637.29409939 </i>
   </energy>
  </scstep>
  <scstep>
   <time name="diag">    1.26    1.27</time>
   <time name="diis">   14.36   14.46</time>
   <time name="orth">    0.32    0.32</time>
   <time name="total">   16.12   16.23</time>
   <energy>
    <i name="e_fr_energy">   -633.03296112 </i>
    <i name="e_wo_entrp">   -632.92137755 </i>
    <i name="e_0_energy">   -632.97716933 </i>
   </energy>
  </scstep>
  <scstep>
   <time name="diag">    1.18    1.19</time>
   <time name="diis">   14.34   14.50</time>
   <time name="orth">    0.28    0.28</time>
   <time name="total">   15.99   16.15</time>
   <energy>
    <i name="e_fr_energy">   -633.33880640 </i>
    <i name="e_wo_entrp">   -633.24201017 </i>
    <i name="e_0_energy">   -633.29040828 </i>
   </energy>
  </scstep>
  <scstep>
   <time name="diag">    1.17    1.18</time>
   <time name="diis">   14.15   14.24</time>
   <time name="orth">    0.28    0.28</time>
   <time name="total">   15.79   15.89</time>
   <energy>
    <i name="e_fr_energy">   -632.48691107 </i>
    <i name="e_wo_entrp">   -632.37648225 </i>
    <i name="e_0_energy">   -632.43169666 </i>
   </energy>
  </scstep>
  <scstep>
   <time name="diag">    1.31    1.31</time>
   <time name="diis">   14.66   14.82</time>
   <time name="orth">    0.28    0.28</time>
   <time name="total">   16.43   16.60</time>
   <energy>
    <i name="e_fr_energy">   -632.66151313 </i>
    <i name="e_wo_entrp">   -632.55068829 </i>
    <i name="e_0_energy">   -632.60610071 </i>
   </energy>
  </scstep>
  <scstep>
   <time name="diag">    1.16    1.16</time>
   <time name="diis">   13.76   13.92</time>
   <time name="orth">    0.31    0.32</time>
   <time name="total">   15.41   15.58</time>
   <energy>
    <i name="e_fr_energy">   -632.19398211 </i>
    <i name="e_wo_entrp">   -632.09031208 </i>
    <i name="e_0_energy">   -632.14214710 </i>
   </energy>
  </scstep>
  <scstep>
   <time name="diag">    1.50    1.52</time>
   <time name="diis">   14.48   14.56</time>
   <time name="orth">    0.36    0.36</time>
   <time name="total">   16.55   16.66</time>
   <energy>
    <i name="e_fr_energy">   -632.22355739 </i>
    <i name="e_wo_entrp">   -632.11451601 </i>
    <i name="e_0_energy">   -632.16903670 </i>
   </energy>
  </scstep>
  <scstep>
   <time name="diag">    1.27    1.28</time>
   <time name="diis">   14.61   14.73</time>
   <time name="orth">    0.28    0.28</time>
   <time name="total">   16.34   16.47</time>
   <energy>
    <i name="e_fr_energy">   -632.17638263 </i>
    <i name="e_wo_entrp">   -632.07002361 </i>
    <i name="e_0_energy">   -632.12320312 </i>
   </energy>
  </scstep>
  <scstep>
   <time name="diag">    1.16    1.16</time>
   <time name="diis">   15.20   15.32</time>
   <time name="orth">    0.28    0.28</time>
   <time name="total">   16.82   16.94</time>
   <energy>
    <i name="e_fr_energy">   -632.17782571 </i>
    <i name="e_wo_entrp">   -632.07095039 </i>
    <i name="e_0_energy">   -632.12438805 </i>
   </energy>
  </scstep>
  <scstep>
   <time name="diag">    1.18    1.19</time>
   <time name="diis">   14.98   15.15</time>
   <time name="orth">    0.29    0.29</time>
   <time name="total">   16.63   16.81</time>
   <energy>
    <i name="e_fr_energy">   -632.17379343 </i>
    <i name="e_wo_entrp">   -632.06647877 </i>
    <i name="e_0_energy">   -632.12013610 </i>
   </energy>
  </scstep>
  <scstep>
   <time name="diag">    1.21    1.22</time>
   <time name="diis">   14.81   14.95</time>
   <time name="orth">    0.32    0.33</time>
   <time name="total">   16.52   16.68</time>
   <energy>
    <i name="e_fr_energy">   -632.17302202 </i>
    <i name="e_wo_entrp">   -632.06602502 </i>
    <i name="e_0_energy">   -632.11952352 </i>
   </energy>
  </scstep>
  <scstep>
   <time name="diag">    1.19    1.20</time>
   <time name="diis">   15.32   15.41</time>
   <time name="orth">    0.30    0.30</time>
   <time name="total">   16.99   17.09</time>
   <energy>
    <i name="e_fr_energy">   -632.17310342 </i>
    <i name="e_wo_entrp">   -632.06589916 </i>
    <i name="e_0_energy">   -632.11950129 </i>
   </energy>
  </scstep>
  <scstep>
   <time name="diag">    1.15    1.16</time>
   <time name="diis">   14.29   14.40</time>
   <time name="orth">    0.28    0.28</time>
   <time name="total">   15.91   16.02</time>
   <energy>
    <i name="e_fr_energy">   -632.17318506 </i>
    <i name="e_wo_entrp">   -632.06597936 </i>
    <i name="e_0_energy">   -632.11958221 </i>
   </energy>
  </scstep>
  <scstep>
   <time name="diag">    1.16    1.17</time>
   <time name="diis">   12.73   12.91</time>
   <time name="orth">    0.28    0.28</time>
   <time name="total">   14.35   14.53</time>
   <energy>
    <i name="e_fr_energy">   -632.17327663 </i>
    <i name="e_wo_entrp">   -632.06607657 </i>
    <i name="e_0_energy">   -632.11967660 </i>
   </energy>
  </scstep>
  <scstep>
   <time name="diag">    1.21    1.21</time>
   <time name="diis">   11.16   11.32</time>
   <time name="orth">    0.29    0.29</time>
   <time name="total">   12.83   13.00</time>
   <energy>
    <i name="e_fr_energy">   -632.17332151 </i>
    <i name="e_wo_entrp">   -632.06610686 </i>
    <i name="e_0_energy">   -632.11971419 </i>
   </energy>
  </scstep>
  <scstep>
   <time name="diag">    1.26    1.27</time>
   <time name="diis">    9.84    9.98</time>
   <time name="orth">    0.28    0.28</time>
   <time name="total">   11.57   11.72</time>
   <energy>
    <i name="e_fr_energy">   -632.17334463 </i>
    <i name="e_wo_entrp">   -632.06613729 </i>
    <i name="e_0_energy">   -632.11974096 </i>
   </energy>
  </scstep>
  <scstep>
   <time name="diag">    1.18    1.18</time>
   <time name="diis">    8.51    8.57</time>
   <time name="orth">    0.28    0.28</time>
   <time name="total">   10.15   10.22</time>
   <energy>
    <i name="e_fr_energy">   -632.17335861 </i>
    <i name="e_wo_entrp">   -632.06616526 </i>
    <i name="e_0_energy">   -632.11976194 </i>
   </energy>
  </scstep>
  <scstep>
   <time name="diag">    1.17    1.17</time>
   <time name="diis">    7.92    8.00</time>
   <time name="orth">    0.30    0.30</time>
   <time name="total">    9.41    9.50</time>
   <energy>
    <i name="alphaZ">   3506.95325413 </i>
    <i name="ewald"> -32640.14767652 </i>
    <i name="hartreedc">  -7260.19203711 </i>
    <i name="XCdc">    804.19574103 </i>
    <i name="pawpsdc">  26917.90669008 </i>
    <i name="pawaedc"> -26396.72920503 </i>
    <i name="eentropy">     -0.10720374 </i>
    <i name="bandstr">  -3505.00338722 </i>
    <i name="atom">  37940.95045827 </i>
    <i name="e_fr_energy">   -632.17336612 </i>
    <i name="e_wo_entrp">   -632.06616237 </i>
    <i name="e_0_energy">   -632.11976425 </i>
   </energy>
  </scstep>
  <structure>
   <crystal>
    <varray name="basis" >
     <v>       8.64514032       0.02664704      -0.01450074 </v>
     <v>       0.03263896       8.70336341       0.00236481 </v>
     <v>       0.01659995      -0.01271616       8.66365405 </v>
    </varray>
    <i name="volume">    651.86373373 </i>
    <varray name="rec_basis" >
     <v>       0.11567289      -0.00043373      -0.00022227 </v>
     <v>      -0.00035387       0.11489939       0.00016932 </v>
     <v>       0.00019370      -0.00003209       0.11542432 </v>
    </varray>
   </crystal>
   <varray name="positions" >
    <v>       0.00298963       0.99589883       0.99528205 </v>
    <v>       0.26941911       0.00103241       0.24684267 </v>
    <v>       0.24399267       0.49601017       0.24725412 </v>
    <v>       0.50080478       0.50050232       0.00190916 </v>
    <v>       0.50648297       0.24663541       0.74166519 </v>
    <v>       0.99701509       0.50184363       0.49976684 </v>
    <v>       0.49721619       0.75942100       0.74822152 </v>
    <v>       0.98919704       0.24056947       0.24800583 </v>
    <v>       0.75470723       0.74437236       0.01109182 </v>
    <v>       0.00180621       0.25012319       0.75297321 </v>
    <v>       0.75268926       0.24305680       0.49834060 </v>
    <v>       0.99834956       0.74992067       0.74916242 </v>
    <v>       0.24973384       0.49231045       0.75111791 </v>
    <v>       0.26733430       0.24044976       0.99753013 </v>
    <v>       0.51423213       0.25232938       0.25430131 </v>
    <v>       0.73900650       0.98958239       0.25447193 </v>
    <v>       0.74044986       0.24167374       0.99920359 </v>
    <v>       0.24575840       0.74670548       0.99635445 </v>
    <v>       0.24997213       0.25015619       0.50298850 </v>
    <v>       0.24816552       0.75699435       0.50545108 </v>
    <v>       0.24892496       0.24751752       0.24888272 </v>
    <v>       0.26205669       0.00014110       0.99095303 </v>
    <v>       0.99883326       0.25329894       0.00065615 </v>
    <v>       0.74812288       0.23868751       0.24678577 </v>
    <v>       0.74012481       0.99558563       0.00510015 </v>
    <v>       0.51476669       0.00071905       0.27634472 </v>
    <v>       0.99304071       0.49592056       0.24368903 </v>
    <v>       0.49912567       0.76297678       0.00708704 </v>
    <v>       0.98636222       0.00423473       0.74165256 </v>
    <v>       0.75729511       0.24739998       0.74920049 </v>
    <v>       0.76201449       0.00712751       0.48964652 </v>
    <v>       0.50231343       0.24588456       0.48944234 </v>
    <v>       0.52755068       0.00102770       0.74181867 </v>
    <v>       0.00044244       0.00135552       0.25054673 </v>
    <v>       0.50333257       0.23857627       0.00474808 </v>
    <v>       0.25484022       0.74999282       0.25068076 </v>
    <v>       0.23927961       0.49970915       0.99396110 </v>
    <v>       0.00201510       0.74039698       0.00269865 </v>
    <v>       0.74781621       0.74527574       0.25146499 </v>
    <v>       0.76300143       0.49360112       0.00543636 </v>
    <v>       0.50002304       0.50259850       0.25340070 </v>
    <v>       0.24735142       0.24634143       0.75284083 </v>
    <v>       0.25649293       0.00504749       0.51376682 </v>
    <v>       0.00274901       0.24903340       0.50010626 </v>
    <v>       0.24071117       0.75687476       0.75128001 </v>
    <v>       0.25533414       0.50268372       0.50415695 </v>
    <v>       0.99859076       0.75941668       0.50005874 </v>
    <v>       0.00051673       0.50086541       0.75588796 </v>
    <v>       0.75119767       0.75573113       0.74956184 </v>
    <v>       0.74194619       0.49611865       0.50522805 </v>
    <v>       0.49510629       0.76633830       0.48549724 </v>
    <v>       0.50172140       0.50264303       0.74234393 </v>
    <v>       0.51321259       0.01113083       0.96433507 </v>
    <v>       0.99666289       0.51614800       0.97851955 </v>
    <v>       0.47580337       0.73389499       0.25907922 </v>
    <v>       0.22363159       0.01623717       0.74799857 </v>
    <v>       0.47018396       0.99428786       0.51584395 </v>
    <v>       0.73810529       0.96834914       0.78317399 </v>
    <v>       0.01609009       0.76924061       0.25634983 </v>
    <v>       0.73591415       0.49823002       0.25407026 </v>
    <v>       0.01781510       0.00651727       0.49400778 </v>
    <v>       0.50179436       0.52115976       0.48744253 </v>
    <v>       0.75378397       0.51699627       0.76324242 </v>
    <v>       0.74468070       0.73509815       0.48907749 </v>
   </varray>
  </structure>
  <varray name="forces" >
   <v>      -0.07387695       0.06989523       0.13740074 </v>
   <v>      -0.10665835       0.15632608      -0.13128243 </v>
   <v>       0.10046435      -0.11533532      -0.04882644 </v>
   <v>      -0.00884039       0.00148122      -0.00334682 </v>
   <v>      -0.10579636       0.10178663      -0.00664032 </v>
   <v>      -0.10041579       0.25516155       0.13749293 </v>
   <v>      -0.44538503      -0.44607792      -0.04443566 </v>
   <v>       0.45148572       0.35179025      -0.12447124 </v>
   <v>      -0.20591321       0.12873469      -0.03675232 </v>
   <v>      -0.28709884       0.00660164       0.05574979 </v>
   <v>      -0.24711021       0.01753852       0.16828350 </v>
   <v>       0.02531510       0.17612296      -0.14799301 </v>
   <v>       0.16668797       0.35036231      -0.13961003 </v>
   <v>      -0.75832583       0.03491146      -0.40685679 </v>
   <v>      -0.45589044       0.12238959      -0.08417891 </v>
   <v>      -0.16394392       0.01449251       0.25008139 </v>
   <v>       0.46212935       0.06558804      -0.12737024 </v>
   <v>       0.27323011       0.09139185       0.02998816 </v>
   <v>       0.21481160      -0.30306796       0.12421136 </v>
   <v>      -0.06612565      -0.42749740      -0.22687591 </v>
   <v>       0.14120371       0.18864643      -0.02692660 </v>
   <v>       0.34150192      -0.06333431      -0.14404143 </v>
   <v>       0.12298288       0.26327265      -0.04850835 </v>
   <v>      -0.11038328      -0.02951486      -0.10533632 </v>
   <v>       0.03709104       0.13087239       0.23870223 </v>
   <v>      -0.09721364      -0.02830231      -0.10060200 </v>
   <v>      -0.16883494       0.00526246      -0.39656661 </v>
   <v>      -0.15054220       0.20250292       0.25014519 </v>
   <v>      -0.13864543      -0.02182717      -0.17205570 </v>
   <v>       0.01862946      -0.22765767       0.17024218 </v>
   <v>      -0.36755226      -0.23224352       0.22768579 </v>
   <v>      -0.21134368      -0.09095550      -0.08920616 </v>
   <v>      -0.55934047       0.31961262      -0.33668797 </v>
   <v>      -0.28828721       0.17434391       0.10340146 </v>
   <v>      -0.07744523      -0.04347739       0.08654012 </v>
   <v>       0.16494273      -0.03598920      -0.03502902 </v>
   <v>      -0.14497171      -0.00828862       0.13577078 </v>
   <v>       0.25827510      -0.07548158       0.11311113 </v>
   <v>      -0.25877404       0.14886129       0.15315990 </v>
   <v>       0.26000485      -0.22461184       0.17623643 </v>
   <v>      -0.55656559      -0.07653516      -0.29744774 </v>
   <v>       0.24721420      -0.05303494      -0.28482684 </v>
   <v>      -0.05784721      -0.31567726       0.12816950 </v>
   <v>       0.23812714      -0.06717933      -0.02641745 </v>
   <v>       0.18427089       0.14034311       0.02830406 </v>
   <v>      -0.03474063       0.06121078      -0.16498267 </v>
   <v>       0.10164334       0.10224856      -0.01056853 </v>
   <v>      -0.01997215       0.01237847      -0.10271446 </v>
   <v>       0.11741005      -0.02585189      -0.07169150 </v>
   <v>      -0.00017554      -0.22457373       0.21194337 </v>
   <v>       0.08257461       0.18139287      -0.03600863 </v>
   <v>       0.06741478       0.05317048      -0.00601742 </v>
   <v>      -0.27518510      -0.21092988       0.41501472 </v>
   <v>      -0.07644750      -0.37285600       0.51252599 </v>
   <v>       0.43633450       0.23993245      -0.33685858 </v>
   <v>       0.20517144      -0.13886278       0.03000433 </v>
   <v>       0.58520304       0.18718189       0.06240564 </v>
   <v>       0.76863978       0.63799424      -0.32194579 </v>
   <v>      -0.30824929      -0.53258738       0.03588051 </v>
   <v>       0.63691007      -0.26150267       0.11030493 </v>
   <v>       0.23821255      -0.28632399       0.21347534 </v>
   <v>       0.09507833      -0.25242512       0.46616998 </v>
   <v>      -0.12515659      -0.36262537      -0.33008140 </v>
   <v>       0.01009406       0.56082604       0.20075986 </v>
  </varray>
  <varray name="stress" >
   <v>     188.32574713      -1.06685778       1.14929181 </v>
   <v>      -1.06685528     150.20221626       0.77535244 </v>
   <v>       1.14929132       0.77535216     162.71795713 </v>
  </varray>
  <energy>
   <i name="e_fr_energy">   -632.17336612 </i>
   <i name="e_wo_entrp">   -632.06616237 </i>
   <i name="e_0_energy">   -632.11976425 </i>
  </energy>
  <time name="totalsc">  353.46  356.81</time>
 </calculation>
 <calculation>
  <scstep>
   <time name="dav">   23.12   23.49</time>
   <time name="total">   23.31   23.68</time>
   <energy>
    <i name="alphaZ">   3366.21032167 </i>
    <i name="ewald"> -32224.16309944 </i>
    <i name="hartreedc">  -7138.36371115 </i>
    <i name="XCdc">    781.72586519 </i>
    <i name="pawpsdc">  26917.95036994 </i>
    <i name="pawaedc"> -26396.77095390 </i>
    <i name="eentropy">     -0.14018756 </i>
    <i name="bandstr">  -3887.18992278 </i>
    <i name="atom">  37940.95045827 </i>
    <i name="e_fr_energy">   -639.79085976 </i>
    <i name="e_wo_entrp">   -639.65067220 </i>
    <i name="e_0_energy">   -639.72076598 </i>
   </energy>
  </scstep>
  <scstep>
   <time name="diag">    1.31    1.33</time>
   <time name="diis">   14.47   14.78</time>
   <time name="orth">    0.28    0.28</time>
   <time name="total">   16.24   16.57</time>
   <energy>
    <i name="e_fr_energy">   -695.80357541 </i>
    <i name="e_wo_entrp">   -695.67894318 </i>
    <i name="e_0_energy">   -695.74125929 </i>
   </energy>
  </scstep>
  <scstep>
   <time name="diag">    1.16    1.18</time>
   <time name="diis">   12.86   13.06</time>
   <time name="orth">    0.32    0.32</time>
   <time name="total">   14.54   14.77</time>
   <energy>
    <i name="e_fr_energy">   -634.82444584 </i>
    <i name="e_wo_entrp">   -634.70309828 </i>
    <i name="e_0_energy">   -634.76377206 </i>
   </energy>
  </scstep>
  <scstep>
   <time name="diag">    1.20    1.23</time>
   <time name="diis">   14.93   15.25</time>
   <time name="orth">    0.28    0.28</time>
   <time name="total">   16.60   16.95</time>
   <energy>
    <i name="e_fr_energy">   -637.75574442 </i>
    <i name="e_wo_entrp">   -637.63106004 </i>
    <i name="e_0_energy">   -637.69340223 </i>
   </energy>
  </scstep>
  <scstep>
   <time name="diag">    1.15    1.16</time>
   <time name="diis">   13.92   14.21</time>
   <time name="orth">    0.28    0.28</time>
   <time name="total">   15.53   15.84</time>
   <energy>
    <i name="e_fr_energy">   -634.01565483 </i>
    <i name="e_wo_entrp">   -633.90093994 </i>
    <i name="e_0_energy">   -633.95829739 </i>
   </energy>
  </scstep>
  <scstep>
   <time name="diag">    1.18    1.20</time>
   <time name="diis">   14.65   14.99</time>
   <time name="orth">    0.28    0.28</time>
   <time name="total">   16.31   16.68</time>
   <energy>
    <i name="e_fr_energy">   -633.97501487 </i>
    <i name="e_wo_entrp">   -633.86052824 </i>
    <i name="e_0_energy">   -633.91777155 </i>
   </energy>
  </scstep>
  <scstep>
   <time name="diag">    1.24    1.26</time>
   <time name="diis">   13.98   14.23</time>
   <time name="orth">    0.32    0.33</time>
   <time name="total">   15.72   16.00</time>
   <energy>
    <i name="e_fr_energy">   -633.68022844 </i>
    <i name="e_wo_entrp">   -633.55858296 </i>
    <i name="e_0_energy">   -633.61940570 </i>
   </energy>
  </scstep>
  <scstep>
   <time name="diag">    1.22    1.25</time>
   <time name="diis">   14.47   14.79</time>
   <time name="orth">    0.29    0.33</time>
   <time name="total">   16.17   16.55</time>
   <energy>
    <i name="e_fr_energy">   -633.65664440 </i>
    <i name="e_wo_entrp">   -633.53671376 </i>
    <i name="e_0_energy">   -633.59667908 </i>
   </energy>
  </scstep>
  <scstep>
   <time name="diag">    1.17    1.19</time>
   <time name="diis">   14.28   14.54</time>
   <time name="orth">    0.28    0.29</time>
   <time name="total">   15.91   16.20</time>
   <energy>
    <i name="e_fr_energy">   -633.58281586 </i>
    <i name="e_wo_entrp">   -633.46059068 </i>
    <i name="e_0_energy">   -633.52170327 </i>
   </energy>
  </scstep>
  <scstep>
   <time name="diag">    1.18    1.20</time>
   <time name="diis">   14.93   15.23</time>
   <time name="orth">    0.28    0.29</time>
   <time name="total">   16.57   16.89</time>
   <energy>
    <i name="e_fr_energy">   -633.60890122 </i>
    <i name="e_wo_entrp">   -633.49081419 </i>
    <i name="e_0_energy">   -633.54985770 </i>
   </energy>
  </scstep>
  <scstep>
   <time name="diag">    1.19    1.21</time>
   <time name="diis">   14.25   14.47</time>
   <time name="orth">    0.32    0.33</time>
   <time name="total">   15.95   16.19</time>
   <energy>
    <i name="e_fr_energy">   -633.57560430 </i>
    <i name="e_wo_entrp">   -633.45505386 </i>
    <i name="e_0_energy">   -633.51532908 </i>
   </energy>
  </scstep>
  <scstep>
   <time name="diag">    1.16    1.18</time>
   <time name="diis">   14.57   14.92</time>
   <time name="orth">    0.28    0.28</time>
   <time name="total">   16.19   16.56</time>
   <energy>
    <i name="e_fr_energy">   -633.58175014 </i>
    <i name="e_wo_entrp">   -633.46098267 </i>
    <i name="e_0_energy">   -633.52136640 </i>
   </energy>
  </scstep>
  <scstep>
   <time name="diag">    1.16    1.21</time>
   <time name="diis">   14.17   14.51</time>
   <time name="orth">    0.28    0.28</time>
   <time name="total">   15.79   16.18</time>
   <energy>
    <i name="e_fr_energy">   -633.57580174 </i>
    <i name="e_wo_entrp">   -633.45492854 </i>
    <i name="e_0_energy">   -633.51536514 </i>
   </energy>
  </scstep>
  <scstep>
   <time name="diag">    1.17    1.19</time>
   <time name="diis">   14.93   15.16</time>
   <time name="orth">    0.28    0.28</time>
   <time name="total">   16.56   16.82</time>
   <energy>
    <i name="e_fr_energy">   -633.57562366 </i>
    <i name="e_wo_entrp">   -633.45497398 </i>
    <i name="e_0_energy">   -633.51529882 </i>
   </energy>
  </scstep>
  <scstep>
   <time name="diag">    1.20    1.22</time>
   <time name="diis">   14.68   14.90</time>
   <time name="orth">    0.27    0.28</time>
   <time name="total">   16.33   16.58</time>
   <energy>
    <i name="e_fr_energy">   -633.57572061 </i>
    <i name="e_wo_entrp">   -633.45495980 </i>
    <i name="e_0_energy">   -633.51534021 </i>
   </energy>
  </scstep>
  <scstep>
   <time name="diag">    1.15    1.17</time>
   <time name="diis">   13.67   13.89</time>
   <time name="orth">    0.28    0.28</time>
   <time name="total">   15.28   15.52</time>
   <energy>
    <i name="e_fr_energy">   -633.57579424 </i>
    <i name="e_wo_entrp">   -633.45514061 </i>
    <i name="e_0_energy">   -633.51546742 </i>
   </energy>
  </scstep>
  <scstep>
   <time name="diag">    1.20    1.22</time>
   <time name="diis">   12.02   12.31</time>
   <time name="orth">    0.28    0.28</time>
   <time name="total">   13.69   14.01</time>
   <energy>
    <i name="e_fr_energy">   -633.57583475 </i>
    <i name="e_wo_entrp">   -633.45510987 </i>
    <i name="e_0_energy">   -633.51547231 </i>
   </energy>
  </scstep>
  <scstep>
   <time name="diag">    1.15    1.16</time>
   <time name="diis">   10.31   10.60</time>
   <time name="orth">    0.28    0.28</time>
   <time name="total">   11.92   12.23</time>
   <energy>
    <i name="e_fr_energy">   -633.57586582 </i>
    <i name="e_wo_entrp">   -633.45515876 </i>
    <i name="e_0_energy">   -633.51551229 </i>
   </energy>
  </scstep>
  <scstep>
   <time name="diag">    1.24    1.26</time>
   <time name="diis">    8.56    8.71</time>
   <time name="orth">    0.33    0.33</time>
   <time name="total">   10.31   10.49</time>
   <energy>
[...]
      </set>
     </set>
    </set>
   </array>
  </eigenvalues>
  <separator name="orbital magnetization" >
   <v name="MAGDIPOLOUT">      0.00000000      0.00000000      0.00000000</v>
  </separator>
  <dos>
   <i name="efermi">      8.04673263 </i>
   <total>
    <array>
     <dimension dim="1">gridpoints</dimension>
     <dimension dim="2">spin</dimension>
     <field>energy</field>
     <field>total</field>
     <field>integrated</field>
     <set>
      <set comment="spin 1">
       <r>   -38.1502     0.0000     0.0000 </r>
       <r>   -37.9801     0.0000     0.0000 </r>
       <r>   -37.8100     0.0000     0.0000 </r>
       <r>   -37.6399     0.0000     0.0000 </r>
       <r>   -37.4698     0.0000     0.0000 </r>
       <r>   -37.2997     0.0000     0.0000 </r>
       <r>   -37.1296     0.0000     0.0000 </r>
       <r>   -36.9595     0.0000     0.0000 </r>
       <r>   -36.7894     0.0000     0.0000 </r>
       <r>   -36.6193     0.0000     0.0000 </r>
       <r>   -36.4492     0.0000     0.0000 </r>
       <r>   -36.2791     0.0000     0.0000 </r>
       <r>   -36.1090     0.0005     0.0001 </r>
       <r>   -35.9389     0.7421     0.1263 </r>
       <r>   -35.7688    10.8623     1.9740 </r>
       <r>   -35.5987    33.6680     7.7009 </r>
       <r>   -35.4286   105.7194    25.6836 </r>
       <r>   -35.2585    58.2172    35.5863 </r>
       <r>   -35.0884     2.4306    35.9997 </r>
       <r>   -34.9183     0.0016    36.0000 </r>
       <r>   -34.7482     0.0000    36.0000 </r>
       <r>   -34.5781     0.0000    36.0000 </r>
       <r>   -34.4080     0.0000    36.0000 </r>
       <r>   -34.2379     0.0000    36.0000 </r>
       <r>   -34.0678     0.0000    36.0000 </r>
       <r>   -33.8978     0.0000    36.0000 </r>
       <r>   -33.7277     0.0000    36.0000 </r>
       <r>   -33.5576     0.0000    36.0000 </r>
       <r>   -33.3875     0.0000    36.0000 </r>
       <r>   -33.2174     0.0000    36.0000 </r>
       <r>   -33.0473     0.0000    36.0000 </r>
       <r>   -32.8772     0.0000    36.0000 </r>
       <r>   -32.7071     0.0000    36.0000 </r>
       <r>   -32.5370     0.0000    36.0000 </r>
       <r>   -32.3669     0.0000    36.0000 </r>
       <r>   -32.1968     0.0000    36.0000 </r>
       <r>   -32.0267     0.0000    36.0000 </r>
       <r>   -31.8566     0.0000    36.0000 </r>
       <r>   -31.6865     0.0000    36.0000 </r>
       <r>   -31.5164     0.0000    36.0000 </r>
       <r>   -31.3463     0.0000    36.0000 </r>
       <r>   -31.1762     0.0000    36.0000 </r>
       <r>   -31.0061     0.0000    36.0000 </r>
       <r>   -30.8360     0.0000    36.0000 </r>
       <r>   -30.6659     0.0000    36.0000 </r>
       <r>   -30.4958     0.0000    36.0000 </r>
       <r>   -30.3257     0.0000    36.0000 </r>
       <r>   -30.1556     0.0000    36.0000 </r>
       <r>   -29.9855     0.0000    36.0000 </r>
       <r>   -29.8154     0.0000    36.0000 </r>
       <r>   -29.6453     0.0000    36.0000 </r>
       <r>   -29.4752     0.0000    36.0000 </r>
       <r>   -29.3051     0.0000    36.0000 </r>
       <r>   -29.1350     0.0000    36.0000 </r>
       <r>   -28.9649     0.0000    36.0000 </r>
       <r>   -28.7948     0.0000    36.0000 </r>
       <r>   -28.6247     0.0000    36.0000 </r>
       <r>   -28.4546     0.0023    36.0004 </r>
       <r>   -28.2845     1.7727    36.3019 </r>
       <r>   -28.1144    28.4255    41.1371 </r>
       <r>   -27.9443    75.7224    54.0174 </r>
       <r>   -27.7742    67.6011    65.5162 </r>
       <r>   -27.6041    56.8966    75.1943 </r>
       <r>   -27.4340    42.6258    82.4449 </r>
       <r>   -27.2639    36.9375    88.7279 </r>
       <r>   -27.0938    39.9544    95.5241 </r>
       <r>   -26.9237    33.8349   101.2794 </r>
       <r>   -26.7536    29.6614   106.3248 </r>
       <r>   -26.5835     9.7836   107.9889 </r>
       <r>   -26.4134     0.0650   108.0000 </r>
       <r>   -26.2433     0.2847   108.0484 </r>
       <r>   -26.0732    17.7971   111.0757 </r>
       <r>   -25.9031    62.3640   121.6837 </r>
       <r>   -25.7330    81.8139   135.6002 </r>
       <r>   -25.5629    60.1343   145.8290 </r>
       <r>   -25.3928    23.4341   149.8151 </r>
       <r>   -25.2227     1.0866   149.9999 </r>
       <r>   -25.0526     0.0006   150.0000 </r>
       <r>   -24.8825     0.0000   150.0000 </r>
       <r>   -24.7124     0.0000   150.0000 </r>
       <r>   -24.5423     0.0000   150.0000 </r>
       <r>   -24.3722     0.0000   150.0000 </r>
       <r>   -24.2021     0.0000   150.0000 </r>
       <r>   -24.0320     0.0000   150.0000 </r>
       <r>   -23.8619     0.0000   150.0000 </r>
       <r>   -23.6918     0.0000   150.0000 </r>
       <r>   -23.5217     0.0000   150.0000 </r>
       <r>   -23.3516     0.0000   150.0000 </r>
       <r>   -23.1815     0.0000   150.0000 </r>
       <r>   -23.0114     0.0000   150.0000 </r>
       <r>   -22.8413     0.0000   150.0000 </r>
       <r>   -22.6712     0.0000   150.0000 </r>
       <r>   -22.5011     0.0000   150.0000 </r>
       <r>   -22.3310     0.0000   150.0000 </r>
       <r>   -22.1609     0.0000   150.0000 </r>
       <r>   -21.9908     0.0000   150.0000 </r>
       <r>   -21.8207     0.0000   150.0000 </r>
       <r>   -21.6506     0.0000   150.0000 </r>
       <r>   -21.4805     0.0000   150.0000 </r>
       <r>   -21.3104     0.0000   150.0000 </r>
       <r>   -21.1403     0.0000   150.0000 </r>
       <r>   -20.9702     0.0000   150.0000 </r>
       <r>   -20.8001     0.0000   150.0000 </r>
       <r>   -20.6300     0.0000   150.0000 </r>
       <r>   -20.4599     0.0000   150.0000 </r>
       <r>   -20.2898     0.0000   150.0000 </r>
       <r>   -20.1197     0.0000   150.0000 </r>
       <r>   -19.9497     0.0000   150.0000 </r>
       <r>   -19.7796     0.0000   150.0000 </r>
       <r>   -19.6095     0.0000   150.0000 </r>
       <r>   -19.4394     0.0000   150.0000 </r>
       <r>   -19.2693     0.0000   150.0000 </r>
       <r>   -19.0992     0.0000   150.0000 </r>
       <r>   -18.9291     0.0000   150.0000 </r>
       <r>   -18.7590     0.0000   150.0000 </r>
       <r>   -18.5889     0.0000   150.0000 </r>
       <r>   -18.4188     0.0000   150.0000 </r>
       <r>   -18.2487     0.0000   150.0000 </r>
       <r>   -18.0786     0.0000   150.0000 </r>
       <r>   -17.9085     0.0000   150.0000 </r>
       <r>   -17.7384     0.0000   150.0000 </r>
       <r>   -17.5683     0.0000   150.0000 </r>
       <r>   -17.3982     0.0000   150.0000 </r>
       <r>   -17.2281     0.0000   150.0000 </r>
       <r>   -17.0580     0.0000   150.0000 </r>
       <r>   -16.8879     0.0000   150.0000 </r>
       <r>   -16.7178     0.0000   150.0000 </r>
       <r>   -16.5477     0.0000   150.0000 </r>
       <r>   -16.3776     0.0000   150.0000 </r>
       <r>   -16.2075     0.0000   150.0000 </r>
       <r>   -16.0374     0.0000   150.0000 </r>
       <r>   -15.8673     0.0000   150.0000 </r>
       <r>   -15.6972     0.0000   150.0000 </r>
       <r>   -15.5271     0.0000   150.0000 </r>
       <r>   -15.3570     0.0000   150.0000 </r>
       <r>   -15.1869     0.0000   150.0000 </r>
       <r>   -15.0168     0.0000   150.0000 </r>
       <r>   -14.8467     0.0000   150.0000 </r>
       <r>   -14.6766     0.0000   150.0000 </r>
       <r>   -14.5065     0.0000   150.0000 </r>
       <r>   -14.3364     0.0000   150.0000 </r>
       <r>   -14.1663     0.0000   150.0000 </r>
       <r>   -13.9962     0.0000   150.0000 </r>
       <r>   -13.8261     0.0000   150.0000 </r>
       <r>   -13.6560     0.0000   150.0000 </r>
       <r>   -13.4859     0.0000   150.0000 </r>
       <r>   -13.3158     0.0000   150.0000 </r>
       <r>   -13.1457     0.0000   150.0000 </r>
       <r>   -12.9756     0.0000   150.0000 </r>
       <r>   -12.8055     0.0000   150.0000 </r>
       <r>   -12.6354     0.0000   150.0000 </r>
       <r>   -12.4653     0.0000   150.0000 </r>
       <r>   -12.2952     0.0000   150.0000 </r>
       <r>   -12.1251     0.0000   150.0000 </r>
       <r>   -11.9550     0.0000   150.0000 </r>
       <r>   -11.7849     0.0000   150.0000 </r>
       <r>   -11.6148     0.0000   150.0000 </r>
       <r>   -11.4447     0.0000   150.0000 </r>
       <r>   -11.2746     0.0000   150.0000 </r>
       <r>   -11.1045     0.0000   150.0000 </r>
       <r>   -10.9344     0.0000   150.0000 </r>
       <r>   -10.7643     0.0000   150.0000 </r>
       <r>   -10.5942     0.0000   150.0000 </r>
       <r>   -10.4241     0.0000   150.0000 </r>
       <r>   -10.2540     0.0000   150.0000 </r>
       <r>   -10.0839     0.0000   150.0000 </r>
       <r>    -9.9138     0.0000   150.0000 </r>
       <r>    -9.7437     0.0000   150.0000 </r>
       <r>    -9.5736     0.0000   150.0000 </r>
       <r>    -9.4035     0.0000   150.0000 </r>
       <r>    -9.2334     0.0000   150.0000 </r>
       <r>    -9.0633     0.0000   150.0000 </r>
       <r>    -8.8932     0.0000   150.0000 </r>
       <r>    -8.7231     0.0000   150.0000 </r>
       <r>    -8.5530     0.0000   150.0000 </r>
       <r>    -8.3829     0.0017   150.0003 </r>
       <r>    -8.2128     0.5020   150.0857 </r>
       <r>    -8.0427     5.5190   151.0245 </r>
       <r>    -7.8726     6.4269   152.1177 </r>
       <r>    -7.7025     9.3504   153.7082 </r>
       <r>    -7.5324    13.0546   155.9287 </r>
       <r>    -7.3623    11.0881   157.8148 </r>
       <r>    -7.1922    12.6843   159.9724 </r>
       <r>    -7.0221    19.4931   163.2881 </r>
       <r>    -6.8520    15.3853   165.9051 </r>
       <r>    -6.6819    21.6747   169.5920 </r>
       <r>    -6.5118    22.1747   173.3639 </r>
       <r>    -6.3417     6.9536   174.5467 </r>
       <r>    -6.1716     8.1246   175.9287 </r>
       <r>    -6.0015     0.4193   176.0000 </r>
       <r>    -5.8315     0.0002   176.0000 </r>
       <r>    -5.6614     0.0000   176.0000 </r>
       <r>    -5.4913     0.0000   176.0000 </r>
       <r>    -5.3212     0.0000   176.0000 </r>
       <r>    -5.1511     0.0000   176.0000 </r>
       <r>    -4.9810     0.0002   176.0000 </r>
       <r>    -4.8109     0.1486   176.0253 </r>
       <r>    -4.6408     2.8644   176.5125 </r>
       <r>    -4.4707     6.8200   177.6726 </r>
       <r>    -4.3006     2.0947   178.0289 </r>
       <r>    -4.1305     5.6030   178.9820 </r>
       <r>    -3.9604    11.6374   180.9615 </r>
       <r>    -3.7903    12.9750   183.1685 </r>
       <r>    -3.6202    15.7289   185.8440 </r>
       <r>    -3.4501    23.1794   189.7868 </r>
       <r>    -3.2800    22.8630   193.6758 </r>
       <r>    -3.1099    22.8572   197.5637 </r>
       <r>    -2.9398    21.4918   201.2195 </r>
       <r>    -2.7697    22.1799   204.9922 </r>
       <r>    -2.5996    19.6573   208.3359 </r>
       <r>    -2.4295    15.9595   211.0506 </r>
       <r>    -2.2594     9.8637   212.7284 </r>
       <r>    -2.0893     4.6180   213.5140 </r>
       <r>    -1.9192     2.5444   213.9468 </r>
       <r>    -1.7491     0.3112   213.9997 </r>
       <r>    -1.5790     0.0018   214.0000 </r>
       <r>    -1.4089     0.0000   214.0000 </r>
       <r>    -1.2388     0.0000   214.0000 </r>
       <r>    -1.0687     0.0000   214.0000 </r>
       <r>    -0.8986     0.0000   214.0000 </r>
       <r>    -0.7285     0.0000   214.0000 </r>
       <r>    -0.5584     0.0000   214.0000 </r>
       <r>    -0.3883     0.0000   214.0000 </r>
       <r>    -0.2182     0.0000   214.0000 </r>
       <r>    -0.0481     0.0004   214.0001 </r>
       <r>     0.1220     0.1207   214.0206 </r>
       <r>     0.2921     0.8931   214.1725 </r>
       <r>     0.4622     2.2589   214.5567 </r>
       <r>     0.6323     7.7569   215.8762 </r>
       <r>     0.8024    10.6312   217.6845 </r>
       <r>     0.9725    11.1877   219.5876 </r>
       <r>     1.1426    14.3459   222.0278 </r>
       <r>     1.3127    18.8760   225.2386 </r>
       <r>     1.4828    23.5934   229.2518 </r>
       <r>     1.6529    28.3215   234.0692 </r>
       <r>     1.8230    29.3151   239.0557 </r>
       <r>     1.9931    25.9260   243.4657 </r>
       <r>     2.1632    30.5429   248.6610 </r>
       <r>     2.3333    36.6083   254.8880 </r>
       <r>     2.5034    36.9331   261.1703 </r>
       <r>     2.6735    40.3056   268.0262 </r>
       <r>     2.8436    42.2543   275.2136 </r>
       <r>     3.0137    48.5944   283.4795 </r>
       <r>     3.1838    56.0414   293.0121 </r>
       <r>     3.3539    62.0689   303.5699 </r>
       <r>     3.5240    63.4249   314.3584 </r>
       <r>     3.6941    63.8487   325.2190 </r>
       <r>     3.8642    62.8161   335.9039 </r>
       <r>     4.0343    58.4744   345.8504 </r>
       <r>     4.2044    52.3514   354.7553 </r>
       <r>     4.3745    48.3107   362.9729 </r>
       <r>     4.5446    44.8629   370.6040 </r>
       <r>     4.7147    38.7392   377.1935 </r>
       <r>     4.8848    34.3361   383.0340 </r>
       <r>     5.0549    30.5243   388.2261 </r>
       <r>     5.2250    27.5881   392.9188 </r>
       <r>     5.3951    22.7582   396.7900 </r>
       <r>     5.5652    19.1349   400.0448 </r>
       <r>     5.7353    17.2079   402.9719 </r>
       <r>     5.9054    12.7356   405.1382 </r>
       <r>     6.0755     7.0074   406.3301 </r>
       <r>     6.2456    12.6055   408.4743 </r>
       <r>     6.4157    15.6781   411.1411 </r>
       <r>     6.5858    18.0776   414.2161 </r>
       <r>     6.7559    16.1405   416.9616 </r>
       <r>     6.9260    23.1289   420.8958 </r>
       <r>     7.0961    23.8743   424.9568 </r>
       <r>     7.2662    19.5050   428.2745 </r>
       <r>     7.4363    20.9444   431.8371 </r>
       <r>     7.6064    28.1063   436.6180 </r>
       <r>     7.7765    30.5817   441.8199 </r>
       <r>     7.9466    28.3556   446.6431 </r>
       <r>     8.1167    23.5044   450.6412 </r>
       <r>     8.2867    27.9278   455.3917 </r>
       <r>     8.4568    33.3929   461.0718 </r>
       <r>     8.6269    40.2847   467.9242 </r>
       <r>     8.7970    43.0435   475.2458 </r>
       <r>     8.9671    47.7226   483.3634 </r>
       <r>     9.1372    51.3159   492.0922 </r>
       <r>     9.3073    51.2366   500.8074 </r>
       <r>     9.4774    52.2370   509.6929 </r>
       <r>     9.6475    52.5445   518.6307 </r>
       <r>     9.8176    51.8418   527.4489 </r>
       <r>     9.9877    50.5202   536.0423 </r>
       <r>    10.1578    52.0680   544.8990 </r>
       <r>    10.3279    48.9509   553.2255 </r>
       <r>    10.4980    32.3778   558.7329 </r>
       <r>    10.6681     7.2590   559.9677 </r>
       <r>    10.8382     0.1900   560.0000 </r>
       <r>    11.0083     0.0001   560.0000 </r>
       <r>    11.1784     0.0000   560.0000 </r>
       <r>    11.3485     0.0000   560.0000 </r>
       <r>    11.5186     0.0000   560.0000 </r>
       <r>    11.6887     0.0000   560.0000 </r>
       <r>    11.8588     0.0000   560.0000 </r>
       <r>    12.0289     0.0000   560.0000 </r>
       <r>    12.1990     0.0000   560.0000 </r>
       <r>    12.3691     0.0000   560.0000 </r>
       <r>    12.5392     0.0000   560.0000 </r>
       <r>    12.7093     0.0000   560.0000 </r>
       <r>    12.8794     0.0000   560.0000 </r>
      </set>
     </set>
    </array>
   </total>
  </dos>
 </calculation>
 <structure name="finalpos" >
  <crystal>
   <varray name="basis" >
    <v>       8.81334774       0.02641699      -0.00870392 </v>
    <v>       0.03266249       8.82747275       0.00431368 </v>
    <v>       0.02293271      -0.01100562       8.79899103 </v>
   </varray>
   <i name="volume">    684.55246194 </i>
   <varray name="rec_basis" >
    <v>       0.11346523      -0.00041969      -0.00029625 </v>
    <v>      -0.00033941       0.11328389       0.00014258 </v>
    <v>       0.00011241      -0.00005595       0.11364903 </v>
   </varray>
  </crystal>
  <varray name="positions" >
   <v>       0.00120347       0.99556804       0.99743400 </v>
   <v>       0.26791391       0.00180157       0.24553587 </v>
   <v>       0.24250598       0.49467335       0.24522702 </v>
   <v>       0.50219900       0.49907143       0.00075080 </v>
   <v>       0.50618846       0.24638657       0.74260605 </v>
   <v>       0.99603295       0.50214294       0.50045533 </v>
   <v>       0.49736325       0.75870870       0.74732782 </v>
   <v>       0.99216605       0.23884272       0.25033575 </v>
   <v>       0.75390895       0.74722255       0.01083219 </v>
   <v>       0.00143618       0.24985034       0.75132269 </v>
   <v>       0.75032100       0.24402229       0.50095588 </v>
   <v>       0.99951590       0.75123185       0.74809060 </v>
   <v>       0.25099477       0.49553223       0.74908747 </v>
   <v>       0.25885932       0.24176515       0.99004494 </v>
   <v>       0.51068961       0.25582767       0.25309956 </v>
   <v>       0.73272962       0.98788961       0.26409790 </v>
   <v>       0.74373691       0.24332909       0.99792652 </v>
   <v>       0.24804777       0.74750799       0.99662405 </v>
   <v>       0.25255309       0.24688969       0.50525772 </v>
   <v>       0.25043018       0.75120382       0.50100665 </v>
   <v>       0.24808959       0.24813957       0.24769743 </v>
   <v>       0.26087794       0.00079383       0.99034147 </v>
   <v>       0.00064619       0.25314444       0.00009599 </v>
   <v>       0.74864277       0.24140909       0.24955223 </v>
   <v>       0.74193047       0.99787885       0.00726601 </v>
   <v>       0.51216050       0.00868709       0.26340506 </v>
   <v>       0.99150874       0.49160596       0.24297670 </v>
   <v>       0.49984123       0.76296576       0.00756267 </v>
   <v>       0.98957348       0.00397271       0.74204116 </v>
   <v>       0.75736215       0.24243834       0.75105862 </v>
   <v>       0.75609615       0.00830333       0.49232106 </v>
   <v>       0.50152144       0.24486434       0.48923679 </v>
   <v>       0.52145212       0.00178898       0.74433374 </v>
   <v>       0.99744148       0.00096083       0.25357703 </v>
   <v>       0.50213939       0.23776604       0.00409201 </v>
   <v>       0.25652423       0.74941593       0.24871177 </v>
   <v>       0.23990915       0.50083160       0.99222217 </v>
   <v>       0.00244396       0.73954123       0.00312172 </v>
   <v>       0.74408766       0.74781643       0.25316394 </v>
   <v>       0.76411556       0.49482129       0.00821968 </v>
   <v>       0.49607287       0.50073745       0.25179933 </v>
   <v>       0.24804540       0.24758214       0.74836535 </v>
   <v>       0.25979523       0.99990820       0.51530129 </v>
   <v>       0.00303387       0.24679176       0.49989466 </v>
   <v>       0.24218770       0.75683406       0.75049887 </v>
   <v>       0.25502376       0.50184698       0.50211506 </v>
   <v>       0.00120112       0.75874900       0.50040593 </v>
   <v>       0.00101486       0.50165656       0.75601844 </v>
   <v>       0.75238800       0.75898164       0.74997917 </v>
   <v>       0.74285402       0.49532768       0.50798971 </v>
   <v>       0.49766691       0.76480453       0.48266536 </v>
   <v>       0.50220681       0.50291986       0.74231313 </v>
   <v>       0.51838975       0.01110180       0.96946646 </v>
   <v>       0.99367252       0.51485195       0.97956707 </v>
   <v>       0.47835188       0.72726106       0.25493366 </v>
   <v>       0.22285048       0.01625158       0.74721873 </v>
   <v>       0.47485159       0.99237579       0.51297398 </v>
   <v>       0.73624444       0.97464927       0.78382558 </v>
   <v>       0.01466644       0.76855327       0.25760345 </v>
   <v>       0.73395819       0.50611421       0.25633643 </v>
   <v>       0.02379125       0.00265980       0.49679143 </v>
   <v>       0.50482205       0.51900348       0.48788324 </v>
   <v>       0.75503149       0.51836151       0.76398412 </v>
   <v>       0.74671921       0.73606296       0.49305363 </v>
  </varray>
 </structure>
</modeling>
