HECN                                    
           1
     8.927259    0.015593   -0.025761
     0.022040    8.877749    0.005207
     0.006184   -0.010175    8.853841
   Zr   Ta   Ti   N    C    Cr   Mo
     7     6     7    13    19     6     6
Direct configuration=     1
   0.00206397  0.99818006  0.99403474
   0.27131913  0.99906855  0.24622017
   0.24656926  0.49758658  0.24829092
   0.49853096  0.50007106  0.00030698
   0.50453600  0.24613869  0.74135746
   0.00010846  0.50270215  0.50068440
   0.49401580  0.75832484  0.74818695
   0.98961284  0.23882842  0.24741755
   0.75318861  0.74486705  0.01057399
   0.00231499  0.24932258  0.75380963
   0.75202996  0.24343894  0.49760192
   0.99973058  0.74969211  0.74973622
   0.24988590  0.49301303  0.75007937
   0.26982650  0.24115771  0.00235785
   0.51367489  0.25053523  0.25245232
   0.74242024  0.98945331  0.25088267
   0.73985300  0.24040118  0.99982446
   0.24649302  0.74544303  0.99594345
   0.25002024  0.24580789  0.50143456
   0.24942692  0.75328574  0.50964655
   0.24892178  0.24719593  0.24954666
   0.26179259  0.99944806  0.98939417
   0.99858828  0.25296305  0.00169508
   0.74666290  0.23975235  0.24569938
   0.73967019  0.99620602  0.00552690
   0.51265222  0.00048040  0.27741468
   0.99135488  0.49742205  0.24368147
   0.49843917  0.76312939  0.00758562
   0.98609298  0.00413245  0.73921524
   0.75693235  0.24917626  0.74987297
   0.76427310  0.00554378  0.49113313
   0.50040550  0.24628325  0.49011170
   0.52522359  0.00203047  0.73989246
   0.00177643  0.00118872  0.25047093
   0.50485616  0.23930573  0.00607137
   0.25392237  0.75040576  0.25000925
   0.23925139  0.49966008  0.99562129
   0.00332834  0.74044796  0.00478140
   0.74900858  0.74415519  0.25270992
   0.76234641  0.49228008  0.00622021
   0.49705548  0.50260765  0.25129681
   0.24892336  0.24567731  0.75372875
   0.25115252  0.01980266  0.51272047
   0.00453944  0.24615523  0.49999546
   0.24160536  0.75780861  0.75133712
   0.25587324  0.50091186  0.50223567
   0.99756765  0.76142416  0.49873245
   0.99898213  0.50050519  0.75348693
   0.75083111  0.75362146  0.74735368
   0.74264003  0.49461475  0.50664631
   0.49395346  0.76652811  0.48567362
   0.50387252  0.50307140  0.74166603
   0.51261871  0.01166142  0.96582400
   0.99783196  0.51695671  0.97779013
   0.47633858  0.73508594  0.25806318
   0.22496518  0.01388447  0.75023880
   0.47763443  0.99442300  0.51526909
   0.74017477  0.96936208  0.78407180
   0.01454811  0.76833209  0.25477307
   0.73964488  0.49754869  0.25251998
   0.01328983  0.00810360  0.49571133
   0.49730374  0.52064643  0.49081298
   0.75285377  0.51591606  0.76374796
   0.74467962  0.73682575  0.48880849
HECN                                    
           1
     8.645140    0.026647   -0.014501
     0.032639    8.703363    0.002365
     0.016600   -0.012716    8.663654
   Zr   Ta   Ti   N    C    Cr   Mo
     7     6     7    13    19     6     6
Direct configuration=     2
   0.00298963  0.99589883  0.99528205
   0.26941911  0.00103241  0.24684267
   0.24399267  0.49601017  0.24725412
   0.50080478  0.50050232  0.00190916
   0.50648297  0.24663541  0.74166519
   0.99701509  0.50184363  0.49976684
   0.49721619  0.75942100  0.74822152
   0.98919704  0.24056947  0.24800583
   0.75470723  0.74437236  0.01109182
   0.00180621  0.25012319  0.75297321
   0.75268926  0.24305680  0.49834060
   0.99834956  0.74992067  0.74916242
   0.24973384  0.49231045  0.75111791
   0.26733430  0.24044976  0.99753013
   0.51423213  0.25232938  0.25430131
   0.73900650  0.98958239  0.25447193
   0.74044986  0.24167374  0.99920359
   0.24575840  0.74670548  0.99635445
   0.24997213  0.25015619  0.50298850
   0.24816552  0.75699435  0.50545108
   0.24892496  0.24751752  0.24888272
   0.26205669  0.00014110  0.99095303
   0.99883326  0.25329894  0.00065615
   0.74812288  0.23868751  0.24678577
   0.74012481  0.99558563  0.00510015
   0.51476669  0.00071905  0.27634472
   0.99304071  0.49592056  0.24368903
   0.49912567  0.76297678  0.00708704
   0.98636222  0.00423473  0.74165256
   0.75729511  0.24739998  0.74920049
   0.76201449  0.00712751  0.48964652
   0.50231343  0.24588456  0.48944234
   0.52755068  0.00102770  0.74181867
   0.00044244  0.00135552  0.25054673
   0.50333257  0.23857627  0.00474808
   0.25484022  0.74999282  0.25068076
   0.23927961  0.49970915  0.99396110
   0.00201510  0.74039698  0.00269865
   0.74781621  0.74527574  0.25146499
   0.76300143  0.49360112  0.00543636
   0.50002304  0.50259850  0.25340070
   0.24735142  0.24634143  0.75284083
   0.25649293  0.00504749  0.51376682
   0.00274901  0.24903340  0.50010626
   0.24071117  0.75687476  0.75128001
   0.25533414  0.50268372  0.50415695
   0.99859076  0.75941668  0.50005874
   0.00051673  0.50086541  0.75588796
   0.75119767  0.75573113  0.74956184
   0.74194619  0.49611865  0.50522805
   0.49510629  0.76633830  0.48549724
   0.50172140  0.50264303  0.74234393
   0.51321259  0.01113083  0.96433507
   0.99666289  0.51614800  0.97851955
   0.47580337  0.73389499  0.25907922
   0.22363159  0.01623717  0.74799857
   0.47018396  0.99428786  0.51584395
   0.73810529  0.96834914  0.78317399
   0.01609009  0.76924061  0.25634983
   0.73591415  0.49823002  0.25407026
   0.01781510  0.00651727  0.49400778
   0.50179436  0.52115976  0.48744253
   0.75378397  0.51699627  0.76324242
   0.74468070  0.73509815  0.48907749
HECN                                    
           1
     8.801093    0.020537   -0.020725
     0.026780    8.799762    0.003936
     0.010842   -0.011311    8.768788
   Zr   Ta   Ti   N    C    Cr   Mo
     7     6     7    13    19     6     6
Direct configuration=     3
   0.00246045  0.99718562  0.99457845
   0.27050555  0.99992350  0.24648935
   0.24546163  0.49689729  0.24783834
   0.49950822  0.50026058  0.00100554
   0.50537214  0.24635674  0.74149260
   0.99877964  0.50232554  0.50028322
   0.49539011  0.75880533  0.74820400
   0.98943605  0.23958732  0.24767290
   0.75384035  0.74465236  0.01080042
   0.00209664  0.24967151  0.75344523
   0.75231314  0.24327264  0.49792382
   0.99913767  0.74979085  0.74948558
   0.24982085  0.49270631  0.75053123
   0.26875310  0.24084794  0.00025584
   0.51391660  0.25131780  0.25325683
   0.74095775  0.98950636  0.25244189
   0.74010964  0.24095674  0.99955452
   0.24617894  0.74599299  0.99612154
   0.25000380  0.24770400  0.50210984
   0.24888535  0.75490298  0.50781968
   0.24892292  0.24733631  0.24925774
   0.26190751  0.99975023  0.99007245
   0.99869295  0.25310992  0.00124318
   0.74728946  0.23928885  0.24617323
   0.73986455  0.99593587  0.00534166
   0.51355911  0.00058628  0.27695058
   0.99207730  0.49676848  0.24368619
   0.49873334  0.76306345  0.00736920
   0.98621028  0.00417682  0.74027582
   0.75708629  0.24840197  0.74958095
   0.76330390  0.00623305  0.49048451
   0.50122357  0.24611094  0.48982186
   0.52622291  0.00159455  0.74073229
   0.00120410  0.00126044  0.25050296
   0.50420085  0.23898668  0.00549472
   0.25431644  0.75022624  0.25030211
   0.23926239  0.49968180  0.99489899
   0.00276327  0.74042511  0.00387435
   0.74849680  0.74464322  0.25216727
   0.76262793  0.49285686  0.00587939
   0.49833050  0.50260553  0.25221420
   0.24824860  0.24596592  0.75334124
   0.25343453  0.01337135  0.51318200
   0.00377320  0.24740911  0.50004193
   0.24122089  0.75740067  0.75131182
   0.25564448  0.50168386  0.50307088
   0.99800620  0.76054917  0.49931055
   0.99964264  0.50066302  0.75453255
   0.75099147  0.75454143  0.74831427
   0.74234236  0.49527038  0.50602852
   0.49444795  0.76644624  0.48559771
   0.50294950  0.50288282  0.74195957
   0.51287217  0.01143073  0.96517671
   0.99733015  0.51660299  0.97810682
   0.47610873  0.73456594  0.25850507
   0.22439300  0.01490995  0.74926280
   0.47443725  0.99435831  0.51551409
   0.73928527  0.96891890  0.78367994
   0.01521162  0.76872921  0.25545998
   0.73804534  0.49784273  0.25319178
   0.01522960  0.00741549  0.49497355
   0.49922900  0.52087432  0.48934958
   0.75325341  0.51638797  0.76352846
   0.74467903  0.73607224  0.48892583
HECN                                    
           1
     8.794654    0.027200   -0.012655
     0.033339    8.836085    0.002865
     0.018959   -0.012459    8.806868
   Zr   Ta   Ti   N    C    Cr   Mo
     7     6     7    13    19     6     6
Direct configuration=     4
   0.00299060  0.99566907  0.99573575
   0.26884826  0.00161655  0.24674207
   0.24361580  0.49549279  0.24702495
   0.50120564  0.50057287  0.00216560
   0.50664072  0.24692938  0.74173977
   0.99624307  0.50219052  0.49987400
   0.49696974  0.75875102  0.74815477
   0.98996342  0.24162591  0.24787984
   0.75459383  0.74454203  0.01105871
   0.00117342  0.25025798  0.75298150
   0.75229902  0.24303799  0.49877850
   0.99811568  0.75031505  0.74881159
   0.25001638  0.49289796  0.75102316
   0.26543731  0.24040995  0.99596767
   0.51343263  0.25286667  0.25443242
   0.73798723  0.98968399  0.25555205
   0.74150045  0.24197846  0.99883162
   0.24617866  0.74709488  0.99648213
   0.25041151  0.24987952  0.50355281
   0.24781936  0.75716093  0.50436386
   0.24918878  0.24794332  0.24877697
   0.26274049  0.00009559  0.99091435
   0.99912828  0.25392058  0.00040024
   0.74817540  0.23847838  0.24672784
   0.74026011  0.99575531  0.00551624
   0.51515776  0.00064520  0.27598281
   0.99312806  0.49569628  0.24288690
   0.49892872  0.76336879  0.00751604
   0.98614892  0.00418170  0.74166921
   0.75734561  0.24670854  0.74943824
   0.76092651  0.00690898  0.48982878
   0.50222088  0.24565487  0.48911548
   0.52699367  0.00144582  0.74153507
   0.99973382  0.00168104  0.25077566
   0.50297131  0.23839925  0.00471235
   0.25528253  0.74986816  0.25075364
   0.23896348  0.49968778  0.99396154
   0.00227300  0.74029773  0.00263128
   0.74713093  0.74574128  0.25156101
   0.76361692  0.49333534  0.00565303
   0.49962862  0.50242762  0.25321233
   0.24756913  0.24630364  0.75216894
   0.25776476  0.00236062  0.51417477
   0.00290269  0.24932776  0.50008544
   0.24090618  0.75704138  0.75134215
   0.25514375  0.50294748  0.50408268
   0.99892487  0.75934832  0.50022878
   0.00070798  0.50091620  0.75601209
   0.75142778  0.75604498  0.74970720
   0.74178207  0.49596966  0.50540497
   0.49548841  0.76665745  0.48538977
   0.50149529  0.50266351  0.74245383
   0.51277311  0.01059845  0.96488591
   0.99629705  0.51524959  0.97966425
   0.47655901  0.73419935  0.25857579
   0.22381591  0.01627055  0.74757580
   0.46933459  0.99473948  0.51602367
   0.73909919  0.96946542  0.78233751
   0.01580098  0.76828759  0.25669488
   0.73617385  0.49776650  0.25469586
   0.01927080  0.00566868  0.49413629
   0.50306660  0.52071615  0.48759394
   0.75375166  0.51641632  0.76248808
   0.74455814  0.73582561  0.48955576
HECN                                    
           1
     8.795030    0.026811   -0.013126
     0.032956    8.833965    0.002927
     0.018485   -0.012392    8.804645
   Zr   Ta   Ti   N    C    Cr   Mo
     7     6     7    13    19     6     6
Direct configuration=     5
   0.00295963  0.99575726  0.99566852
   0.26894517  0.00151805  0.24672728
   0.24372353  0.49557437  0.24707214
   0.50110655  0.50055478  0.00209826
   0.50656665  0.24689614  0.74172547
   0.99639123  0.50219826  0.49989765
   0.49687745  0.75875425  0.74815772
   0.98993271  0.24150741  0.24786783
   0.75454982  0.74454847  0.01104374
   0.00122736  0.25022385  0.75300840
   0.75229988  0.24305162  0.49872882
   0.99817537  0.75028453  0.74885071
   0.25000499  0.49288683  0.75099458
   0.26563077  0.24043530  0.99621674
   0.51346103  0.25277659  0.25436405
   0.73816094  0.98967351  0.25537111
   0.74141920  0.24191913  0.99887370
   0.24617874  0.74703081  0.99646117
   0.25038786  0.24975305  0.50346894
   0.24788154  0.75702963  0.50456465
   0.24917325  0.24790805  0.24880493
   0.26269189  0.00007554  0.99086546
   0.99910284  0.25387347  0.00044925
   0.74812364  0.23852554  0.24669566
   0.74023701  0.99576582  0.00550612
   0.51506432  0.00064185  0.27603915
   0.99306659  0.49575866  0.24293343
   0.49891733  0.76335104  0.00750751
   0.98615258  0.00418140  0.74158821
   0.75733039  0.24680700  0.74944656
   0.76106539  0.00686958  0.48986676
   0.50216256  0.24568143  0.48915659
   0.52694868  0.00145449  0.74148845
   0.99981975  0.00165652  0.25075972
   0.50304308  0.23843335  0.00475776
   0.25522610  0.74988902  0.25072745
   0.23898089  0.49968743  0.99401601
   0.00230157  0.74030512  0.00270351
   0.74721074  0.74567738  0.25159617
   0.76355915  0.49330757  0.00566624
   0.49955283  0.50243802  0.25315439
   0.24760878  0.24628399  0.75223704
   0.25751137  0.00300094  0.51411737
   0.00295363  0.24921617  0.50008285
   0.24092455  0.75706226  0.75134037
   0.25517311  0.50287399  0.50402383
   0.99887120  0.75941817  0.50017547
   0.00064583  0.50090152  0.75592615
   0.75140243  0.75595757  0.74962625
   0.74181480  0.49592898  0.50544117
   0.49542762  0.76664522  0.48540191
   0.50158026  0.50267619  0.74242502
   0.51277884  0.01064684  0.96490281
   0.99635743  0.51532822  0.97957368
   0.47653269  0.73422068  0.25857171
   0.22384959  0.01619144  0.74767381
   0.46963273  0.99471709  0.51599378
   0.73911001  0.96943365  0.78241552
   0.01576660  0.76831328  0.25662314
   0.73628326  0.49777084  0.25460834
   0.01903460  0.00577042  0.49418518
   0.50284231  0.52072553  0.48769619
   0.75372250  0.51641470  0.76254858
   0.74456522  0.73583994  0.48951914
HECN                                    
           1
     8.825313    0.025328   -0.012674
     0.031616    8.822709    0.003600
     0.019000   -0.011710    8.803724
   Zr   Ta   Ti   N    C    Cr   Mo
     7     6     7    13    19     6     6
Direct configuration=     6
   0.00274049  0.99559302  0.99641136
   0.26876732  0.00199243  0.24638807
   0.24429715  0.49551898  0.24692118
   0.50143571  0.50029089  0.00232507
   0.50660483  0.24702458  0.74176575
   0.99577867  0.50305539  0.50059494
   0.49634869  0.75822408  0.74783302
   0.99059774  0.24175577  0.24801010
   0.75460547  0.74476462  0.01149381
   0.00073202  0.25034312  0.75264239
   0.75203355  0.24231982  0.49898600
   0.99853654  0.75031185  0.74823382
   0.25027020  0.49368632  0.75064157
   0.26359953  0.24039414  0.99364479
   0.51297097  0.25368837  0.25441949
   0.73642926  0.98954248  0.25751230
   0.74219263  0.24233256  0.99849173
   0.24665192  0.74717590  0.99648978
   0.25071742  0.24868078  0.50464128
   0.24786935  0.75498466  0.50354734
   0.24921949  0.24837453  0.24857150
   0.26297754  0.00026928  0.99110497
   0.99948068  0.25372672  0.00016482
   0.74836388  0.23856133  0.24706051
   0.74045972  0.99584398  0.00537245
   0.51388435  0.00111867  0.27571201
   0.99315399  0.49504379  0.24263183
   0.49902773  0.76341035  0.00745604
   0.98653989  0.00439773  0.74167430
   0.75738890  0.24598686  0.74948774
   0.76041079  0.00775143  0.48961652
   0.50219389  0.24525229  0.48925848
   0.52604569  0.00190188  0.74151698
   0.99914599  0.00219429  0.25145907
   0.50260629  0.23814816  0.00443820
   0.25580816  0.74995180  0.25052672
   0.23922980  0.49994741  0.99401463
   0.00247335  0.74009181  0.00259474
   0.74642419  0.74596347  0.25201212
   0.76407237  0.49345107  0.00594958
   0.49829899  0.50263311  0.25275732
   0.24783752  0.24663735  0.75088775
   0.25704036  0.00135926  0.51447566
   0.00309208  0.24874867  0.49985123
   0.24106793  0.75704126  0.75137217
   0.25484934  0.50304854  0.50365782
   0.99926852  0.75960319  0.50028572
   0.00073885  0.50123013  0.75602205
   0.75174318  0.75621198  0.74992796
   0.74186299  0.49564025  0.50576650
   0.49607431  0.76668033  0.48524794
   0.50138929  0.50282962  0.74284809
   0.51302919  0.01048101  0.96458726
   0.99538998  0.51498893  0.97967661
   0.47671573  0.73394129  0.25855580
   0.22336235  0.01642485  0.74737693
   0.47045794  0.99453714  0.51635466
   0.73991366  0.97008246  0.78257294
   0.01591000  0.76842199  0.25728251
   0.73684243  0.49766050  0.25531457
   0.02096566  0.00475712  0.49428338
   0.50389014  0.52114280  0.48781938
   0.75383557  0.51677246  0.76227661
   0.74433822  0.73605891  0.48918228
HECN                                    
           1
     8.834977    0.024855   -0.012530
     0.031188    8.819118    0.003814
     0.019164   -0.011493    8.803430
   Zr   Ta   Ti   N    C    Cr   Mo
     7     6     7    13    19     6     6
Direct configuration=     7
   0.00267078  0.99554051  0.99664844
   0.26871079  0.00214400  0.24627981
   0.24447956  0.49550131  0.24687299
   0.50154037  0.50020659  0.00239745
   0.50661698  0.24706561  0.74177860
   0.99558390  0.50332919  0.50081746
   0.49618052  0.75805466  0.74772943
   0.99080922  0.24183515  0.24805548
   0.75462316  0.74483367  0.01163744
   0.00057452  0.25038120  0.75252559
   0.75194881  0.24208599  0.49906810
   0.99865141  0.75032062  0.74803694
   0.25035458  0.49394179  0.75052890
   0.26295365  0.24038094  0.99282404
   0.51281518  0.25397966  0.25443716
   0.73587854  0.98950047  0.25819565
   0.74243861  0.24246470  0.99836981
   0.24680239  0.74722228  0.99649890
   0.25082215  0.24833818  0.50501542
   0.24786540  0.75433131  0.50322273
   0.24923422  0.24852358  0.24849700
   0.26306838  0.00033119  0.99118139
   0.99960083  0.25367986  0.00007405
   0.74844027  0.23857277  0.24717694
   0.74053055  0.99586897  0.00532979
   0.51350915  0.00127096  0.27560761
   0.99318175  0.49481540  0.24253560
   0.49906284  0.76342931  0.00743961
   0.98666306  0.00446687  0.74170176
   0.75740747  0.24572482  0.74950090
   0.76020267  0.00803315  0.48953666
   0.50220383  0.24511517  0.48929100
   0.52575856  0.00204477  0.74152609
   0.99893174  0.00236605  0.25168225
   0.50246739  0.23805702  0.00433624
   0.25599326  0.74997190  0.25046265
   0.23930896  0.50003048  0.99401417
   0.00252798  0.74002367  0.00256003
   0.74617407  0.74605482  0.25214487
   0.76423557  0.49349694  0.00603998
   0.49790028  0.50269538  0.25263062
   0.24791031  0.24675030  0.75045714
   0.25689050  0.00083471  0.51459005
   0.00313609  0.24859931  0.49977733
   0.24111352  0.75703456  0.75138231
   0.25474640  0.50310431  0.50354101
   0.99939488  0.75966232  0.50032089
   0.00076844  0.50133512  0.75605265
   0.75185154  0.75629327  0.75002423
   0.74187829  0.49554799  0.50587033
   0.49627996  0.76669159  0.48519879
   0.50132857  0.50287862  0.74298310
   0.51310880  0.01042806  0.96448656
   0.99508231  0.51488047  0.97970948
   0.47677393  0.73385204  0.25855073
   0.22320742  0.01649941  0.74728218
   0.47072034  0.99447969  0.51646981
   0.74016925  0.97028980  0.78262315
   0.01595560  0.76845672  0.25749294
   0.73702022  0.49762526  0.25553994
   0.02157969  0.00443348  0.49431471
   0.50422337  0.52127618  0.48785866
   0.75387155  0.51688678  0.76218980
   0.74426605  0.73612887  0.48907478
HECN                                    
           1
     8.810430    0.022357   -0.013521
     0.028640    8.808196    0.005148
     0.018110   -0.010145    8.794247
   Zr   Ta   Ti   N    C    Cr   Mo
     7     6     7    13    19     6     6
Direct configuration=     8
   0.00221355  0.99550946  0.99726171
   0.26887022  0.00246419  0.24603611
   0.24430238  0.49548256  0.24698008
   0.50198642  0.49975872  0.00205040
   0.50667040  0.24744499  0.74181112
   0.99539366  0.50348428  0.50101629
   0.49629523  0.75845918  0.74763044
   0.99126195  0.24207126  0.24853304
   0.75489518  0.74524730  0.01209545
   0.00064526  0.25044992  0.75193517
   0.75186502  0.24159595  0.49935106
   0.99922111  0.75074527  0.74796046
   0.25049140  0.49485369  0.75004100
   0.26144432  0.24074882  0.99060758
   0.51262091  0.25497022  0.25425169
   0.73383431  0.98952206  0.25997212
   0.74275482  0.24274212  0.99818554
   0.24718405  0.74729871  0.99652749
   0.25101116  0.24706203  0.50601068
   0.24867143  0.75167423  0.50258035
   0.24902083  0.24864832  0.24828558
   0.26273029  0.00041077  0.99111065
   0.00003702  0.25346824  0.99980342
   0.74855013  0.23882365  0.24749161
   0.74064751  0.99626978  0.00532803
   0.51208869  0.00198982  0.27497830
   0.99327127  0.49431181  0.24251789
   0.49931117  0.76355236  0.00727289
   0.98732956  0.00458841  0.74165617
   0.75731515  0.24478011  0.74964513
   0.75976994  0.00839223  0.48956561
   0.50219357  0.24470397  0.48937389
   0.52549423  0.00166206  0.74189589
   0.99861269  0.00245064  0.25248759
   0.50215559  0.23763813  0.00409176
   0.25621217  0.75020948  0.25007853
   0.23985989  0.50044645  0.99367430
   0.00257269  0.73961904  0.00275711
   0.74565846  0.74629932  0.25258137
   0.76436623  0.49353636  0.00649318
   0.49770805  0.50296127  0.25282352
   0.24793830  0.24717807  0.74908424
   0.25704450  0.00062487  0.51489018
   0.00319454  0.24789874  0.49951573
   0.24119364  0.75701508  0.75131439
   0.25458271  0.50296842  0.50313909
   0.99961800  0.76002044  0.50028344
   0.00073311  0.50165269  0.75607117
   0.75177238  0.75666047  0.75026567
   0.74207521  0.49525163  0.50652311
   0.49680683  0.76667942  0.48498304
   0.50129999  0.50305673  0.74324473
   0.51402748  0.01034473  0.96416388
   0.99407705  0.51454595  0.97942360
   0.47671062  0.73362833  0.25826198
   0.22245734  0.01636562  0.74714296
   0.47083424  0.99437174  0.51685458
   0.74002881  0.97099332  0.78275878
   0.01648854  0.76848439  0.25775666
   0.73644626  0.49751593  0.25594531
   0.02297971  0.00364253  0.49466557
   0.50480558  0.52105896  0.48781093
   0.75416326  0.51736774  0.76213898
   0.74418434  0.73632679  0.48901191
HECN                                    
           1
     8.813913    0.022711   -0.013380
     0.029001    8.809746    0.004959
     0.018260   -0.010336    8.795550
   Zr   Ta   Ti   N    C    Cr   Mo
     7     6     7    13    19     6     6
Direct configuration=     9
   0.00227861  0.99551391  0.99717460
   0.26884752  0.00241868  0.24607073
   0.24432760  0.49548523  0.24696487
   0.50192297  0.49982233  0.00209968
   0.50666278  0.24739109  0.74180651
   0.99542072  0.50346226  0.50098805
   0.49627889  0.75840170  0.74764451
   0.99119750  0.24203770  0.24846519
   0.75485644  0.74518853  0.01203039
   0.00063520  0.25044014  0.75201904
   0.75187696  0.24166559  0.49931085
   0.99914002  0.75068491  0.74797133
   0.25047190  0.49472410  0.75011033
   0.26165913  0.24069656  0.99092248
   0.51264852  0.25482948  0.25427806
   0.73412519  0.98951911  0.25971979
   0.74270981  0.24270269  0.99821172
   0.24712974  0.74728784  0.99652343
   0.25098430  0.24724336  0.50586927
   0.24855685  0.75205172  0.50267154
   0.24905120  0.24863060  0.24831562
   0.26277840  0.00039947  0.99112070
   0.99997496  0.25349828  0.99984185
   0.74853448  0.23878800  0.24744691
   0.74063085  0.99621283  0.00532829
   0.51229081  0.00188772  0.27506774
   0.99325855  0.49438336  0.24252040
   0.49927583  0.76353487  0.00729657
   0.98723471  0.00457112  0.74166264
   0.75732832  0.24491435  0.74962463
   0.75983151  0.00834123  0.48956151
   0.50219505  0.24476240  0.48936211
   0.52553185  0.00171645  0.74184336
   0.99865808  0.00243865  0.25237319
   0.50219999  0.23769766  0.00412649
   0.25618102  0.75017571  0.25013310
   0.23978148  0.50038732  0.99372258
   0.00256634  0.73967653  0.00272910
   0.74573182  0.74626461  0.25251937
   0.76434763  0.49353076  0.00642880
   0.49773539  0.50292350  0.25279613
   0.24793432  0.24711726  0.74927928
   0.25702259  0.00065468  0.51484754
   0.00318626  0.24799828  0.49955288
   0.24118224  0.75701784  0.75132404
   0.25460602  0.50298773  0.50319619
   0.99958623  0.75996954  0.50028876
   0.00073813  0.50160757  0.75606854
   0.75178363  0.75660830  0.75023138
   0.74204719  0.49529374  0.50643037
   0.49673185  0.76668112  0.48501368
   0.50130404  0.50303143  0.74320757
   0.51389676  0.01035653  0.96420971
   0.99422012  0.51459352  0.97946422
   0.47671964  0.73366011  0.25830300
   0.22256409  0.01638465  0.74716274
   0.47081803  0.99438708  0.51679992
   0.74004876  0.97089337  0.78273953
   0.01641270  0.76848044  0.25771919
   0.73652793  0.49753149  0.25588773
   0.02278051  0.00375487  0.49461569
   0.50472274  0.52108980  0.48781770
   0.75412173  0.51729939  0.76214620
   0.74419596  0.73629867  0.48902085
HECN                                    
           1
     8.811871    0.021535   -0.013523
     0.027777    8.827019    0.006833
     0.018136   -0.008497    8.812936
   Zr   Ta   Ti   N    C    Cr   Mo
     7     6     7    13    19     6     6
Direct configuration=    10
   0.00178344  0.99559635  0.99759918
   0.26878102  0.00269585  0.24575663
   0.24385390  0.49527351  0.24678426
   0.50224971  0.49950666  0.00171565
   0.50669775  0.24756840  0.74182656
   0.99550907  0.50309863  0.50075618
   0.49667574  0.75879994  0.74773349
   0.99161314  0.24204709  0.24901618
   0.75493568  0.74549003  0.01240117
   0.00085122  0.25040633  0.75146606
   0.75178393  0.24158451  0.49960786
   0.99939432  0.75130146  0.74817795
   0.25056687  0.49545975  0.74975231
   0.26058922  0.24125481  0.98963787
   0.51233967  0.25569166  0.25398601
   0.73251834  0.98964364  0.26074519
   0.74286179  0.24277752  0.99817770
   0.24751957  0.74731093  0.99659493
   0.25114732  0.24664668  0.50624214
   0.24964563  0.75035632  0.50225907
   0.24872693  0.24855851  0.24812377
   0.26218870  0.00042184  0.99079555
   0.00039381  0.25343359  0.99963563
   0.74843787  0.23908697  0.24761725
   0.74061869  0.99677964  0.00564477
   0.51149232  0.00263406  0.27430299
   0.99314655  0.49416926  0.24264485
   0.49946837  0.76372858  0.00719223
   0.98781020  0.00451830  0.74162646
   0.75725289  0.24406954  0.74985219
   0.75938238  0.00794934  0.48994045
   0.50205332  0.24447472  0.48931666
   0.52548645  0.00158494  0.74219459
   0.99851972  0.00220197  0.25292375
   0.50201780  0.23735513  0.00400199
   0.25613506  0.75029569  0.24973775
   0.24020904  0.50078080  0.99320893
   0.00265705  0.73934000  0.00305337
   0.74543066  0.74648502  0.25275528
   0.76429659  0.49353292  0.00689470
   0.49805621  0.50319671  0.25289172
   0.24791487  0.24745452  0.74844720
   0.25776558  0.00052407  0.51501253
   0.00323413  0.24755918  0.49940680
   0.24137665  0.75703550  0.75116450
   0.25466603  0.50263098  0.50295473
   0.99974115  0.76001068  0.50030409
   0.00067821  0.50182347  0.75595391
   0.75177921  0.75699932  0.75040248
   0.74222078  0.49509580  0.50711670
   0.49701549  0.76661523  0.48481339
   0.50148919  0.50322655  0.74313900
   0.51488374  0.01033650  0.96418089
   0.99354012  0.51418974  0.97913799
   0.47671527  0.73344483  0.25779167
   0.22217093  0.01608675  0.74733469
   0.47076496  0.99456158  0.51716842
   0.73965670  0.97155043  0.78267607
   0.01684936  0.76840248  0.25760752
   0.73584142  0.49741820  0.25621315
   0.02318220  0.00336794  0.49499444
   0.50478863  0.52045129  0.48793146
   0.75434260  0.51777145  0.76232159
   0.74428522  0.73633569  0.48933565
HECN                                    
           1
     8.812294    0.021778   -0.013493
     0.028031    8.823441    0.006445
     0.018162   -0.008878    8.809335
   Zr   Ta   Ti   N    C    Cr   Mo
     7     6     7    13    19     6     6
Direct configuration=    11
   0.00188601  0.99557934  0.99751142
   0.26879479  0.00263854  0.24582157
   0.24395204  0.49531728  0.24682159
   0.50218203  0.49957188  0.00179502
   0.50669050  0.24753175  0.74182242
   0.99549078  0.50317378  0.50080409
   0.49659352  0.75871761  0.74771511
   0.99152704  0.24204516  0.24890229
   0.75491925  0.74542772  0.01232454
   0.00080647  0.25041329  0.75158036
   0.75180320  0.24160128  0.49954646
   0.99934162  0.75117402  0.74813526
   0.25054717  0.49530767  0.74982635
   0.26081085  0.24113939  0.98990344
   0.51240363  0.25551344  0.25404642
   0.73285121  0.98961799  0.26053324
   0.74283030  0.24276204  0.99818473
   0.24743881  0.74730615  0.99658015
   0.25111356  0.24677003  0.50616504
   0.24942013  0.75070673  0.50234425
   0.24879411  0.24857341  0.24816343
   0.26231087  0.00041722  0.99086277
   0.00030705  0.25344695  0.99967826
   0.74845788  0.23902518  0.24758206
   0.74062119  0.99666249  0.00557937
   0.51165772  0.00247978  0.27446110
   0.99316975  0.49421352  0.24261911
   0.49942848  0.76368852  0.00721381
   0.98769098  0.00452920  0.74163393
   0.75726854  0.24424418  0.74980512
   0.75947543  0.00803037  0.48986210
   0.50208269  0.24453419  0.48932605
   0.52549586  0.00161214  0.74212199
   0.99854838  0.00225092  0.25280994
   0.50205555  0.23742594  0.00402771
   0.25614458  0.75027087  0.24981948
   0.24012045  0.50069943  0.99331512
   0.00263827  0.73940958  0.00298633
   0.74549304  0.74643948  0.25270653
   0.76430716  0.49353250  0.00679839
   0.49798974  0.50314023  0.25287197
   0.24791889  0.24738477  0.74861921
   0.25761166  0.00055105  0.51497841
   0.00322423  0.24764994  0.49943697
   0.24133638  0.75703184  0.75119747
   0.25465361  0.50270471  0.50300463
   0.99970905  0.76000217  0.50030093
   0.00069061  0.50177883  0.75597761
   0.75178012  0.75691850  0.75036713
   0.74218482  0.49513675  0.50697482
   0.49695674  0.76662883  0.48485479
   0.50145083  0.50318621  0.74315318
   0.51467927  0.01034061  0.96418684
   0.99368101  0.51427320  0.97920541
   0.47671618  0.73348931  0.25789736
   0.22225239  0.01614835  0.74729914
   0.47077595  0.99452552  0.51709226
   0.73973790  0.97141462  0.78268922
   0.01675890  0.76841858  0.25763060
   0.73598364  0.49744165  0.25614588
   0.02309900  0.00344793  0.49491613
   0.50477500  0.52058328  0.48790792
   0.75429683  0.51767387  0.76228535
   0.74426673  0.73632805  0.48927058
HECN                                    
           1
     8.817520    0.022173   -0.012793
     0.028454    8.819573    0.007420
     0.018867   -0.007900    8.807255
   Zr   Ta   Ti   N    C    Cr   Mo