  64  64   0   0
  0.1131676E+02  0.8963241E-09  0.8992330E-09  0.8986239E-09  0.5000000E-15
  1.000000000000000E-004
  CAR 
 HEBCN                                   
     14.69169868    -50.65877444  301      8.33502451      1.00000000
    -50.659  0.0000E+00  0.0000E+00
    -50.441  0.0000E+00  0.0000E+00
    -50.223  0.0000E+00  0.0000E+00
    -50.005  0.0000E+00  0.0000E+00
    -49.787  0.0000E+00  0.0000E+00
    -49.570  0.0000E+00  0.0000E+00
    -49.352  0.0000E+00  0.0000E+00
    -49.134  0.0000E+00  0.0000E+00
    -48.916  0.0000E+00  0.0000E+00
    -48.698  0.0000E+00  0.0000E+00
    -48.480  0.0000E+00  0.0000E+00
    -48.263  0.2039E-14  0.4441E-15
    -48.045  0.2127E-05  0.4633E-06
    -47.827  0.2358E+00  0.5137E-01
    -47.609  0.1265E+02  0.2807E+01
    -47.391  0.2249E+02  0.7705E+01
    -47.173  0.1658E+02  0.1132E+02
    -46.956  0.3136E+01  0.1200E+02
    -46.738  0.7988E-03  0.1200E+02
    -46.520  0.3375E-10  0.1200E+02
    -46.302  0.0000E+00  0.1200E+02
    -46.084  0.0000E+00  0.1200E+02
    -45.866  0.0000E+00  0.1200E+02
    -45.649  0.0000E+00  0.1200E+02
    -45.431  0.0000E+00  0.1200E+02
    -45.213  0.0000E+00  0.1200E+02
    -44.995  0.0000E+00  0.1200E+02
    -44.777  0.0000E+00  0.1200E+02
    -44.559  0.0000E+00  0.1200E+02
    -44.342  0.0000E+00  0.1200E+02
    -44.124  0.0000E+00  0.1200E+02
    -43.906  0.0000E+00  0.1200E+02
    -43.688  0.0000E+00  0.1200E+02
    -43.470  0.0000E+00  0.1200E+02
    -43.252  0.0000E+00  0.1200E+02
    -43.035  0.0000E+00  0.1200E+02
    -42.817  0.0000E+00  0.1200E+02
    -42.599  0.0000E+00  0.1200E+02
    -42.381  0.0000E+00  0.1200E+02
    -42.163  0.0000E+00  0.1200E+02
    -41.945  0.0000E+00  0.1200E+02
    -41.728  0.0000E+00  0.1200E+02
    -41.510  0.0000E+00  0.1200E+02
    -41.292  0.1898E-08  0.1200E+02
    -41.074  0.7313E-02  0.1200E+02
    -40.856  0.6672E+01  0.1346E+02
    -40.638  0.2037E+02  0.1789E+02
    -40.421  0.5982E+01  0.1919E+02
    -40.203  0.1985E+02  0.2352E+02
    -39.985  0.2885E+01  0.2415E+02
    -39.767  0.8033E+01  0.2590E+02
    -39.549  0.4720E+00  0.2600E+02
    -39.331  0.1126E-04  0.2600E+02
    -39.114  0.3058E-13  0.2600E+02
    -38.896  0.0000E+00  0.2600E+02
    -38.678  0.0000E+00  0.2600E+02
    -38.460  0.0000E+00  0.2600E+02
    -38.242  0.0000E+00  0.2600E+02
    -38.024  0.0000E+00  0.2600E+02
    -37.807  0.0000E+00  0.2600E+02
    -37.589  0.0000E+00  0.2600E+02
    -37.371  0.0000E+00  0.2600E+02
    -37.153  0.0000E+00  0.2600E+02
    -36.935  0.0000E+00  0.2600E+02
    -36.717  0.0000E+00  0.2600E+02
    -36.500  0.0000E+00  0.2600E+02
    -36.282  0.0000E+00  0.2600E+02
    -36.064  0.0000E+00  0.2600E+02
    -35.846  0.6768E-07  0.2600E+02
    -35.628  0.4485E-01  0.2601E+02
    -35.410  0.6726E+01  0.2747E+02
    -35.192  0.5903E+02  0.4033E+02
    -34.975  0.8800E+02  0.5950E+02
    -34.757  0.1117E+02  0.6194E+02
    -34.539  0.2923E+00  0.6200E+02
    -34.321  0.3661E-05  0.6200E+02
    -34.103  0.5097E-14  0.6200E+02
    -33.885  0.0000E+00  0.6200E+02
    -33.668  0.0000E+00  0.6200E+02
    -33.450  0.0000E+00  0.6200E+02
    -33.232  0.0000E+00  0.6200E+02
    -33.014  0.0000E+00  0.6200E+02
    -32.796  0.0000E+00  0.6200E+02
    -32.578  0.0000E+00  0.6200E+02
    -32.361  0.0000E+00  0.6200E+02
    -32.143  0.0000E+00  0.6200E+02
    -31.925  0.0000E+00  0.6200E+02
    -31.707  0.0000E+00  0.6200E+02
    -31.489  0.0000E+00  0.6200E+02
    -31.271  0.0000E+00  0.6200E+02
    -31.054  0.0000E+00  0.6200E+02
    -30.836  0.0000E+00  0.6200E+02
    -30.618  0.0000E+00  0.6200E+02
    -30.400  0.0000E+00  0.6200E+02
    -30.182  0.0000E+00  0.6200E+02
    -29.964  0.0000E+00  0.6200E+02
    -29.747  0.0000E+00  0.6200E+02
    -29.529  0.0000E+00  0.6200E+02
    -29.311  0.0000E+00  0.6200E+02
    -29.093  0.0000E+00  0.6200E+02
    -28.875  0.0000E+00  0.6200E+02
    -28.657  0.0000E+00  0.6200E+02
    -28.440  0.0000E+00  0.6200E+02
    -28.222  0.0000E+00  0.6200E+02
    -28.004  0.0000E+00  0.6200E+02
    -27.786  0.0000E+00  0.6200E+02
    -27.568  0.3442E-09  0.6200E+02
    -27.350  0.3708E-02  0.6200E+02
    -27.133  0.7551E+01  0.6365E+02
    -26.915  0.4754E+02  0.7400E+02
    -26.697  0.8560E+02  0.9265E+02
    -26.479  0.2444E+02  0.9797E+02
    -26.261  0.1251E+00  0.9800E+02
    -26.043  0.2595E-06  0.9800E+02
    -25.826  0.0000E+00  0.9800E+02
    -25.608  0.0000E+00  0.9800E+02
    -25.390  0.0000E+00  0.9800E+02
    -25.172  0.0000E+00  0.9800E+02
    -24.954  0.0000E+00  0.9800E+02
    -24.736  0.0000E+00  0.9800E+02
    -24.519  0.7297E-12  0.9800E+02
    -24.301  0.7888E-04  0.9800E+02
    -24.083  0.1060E+01  0.9823E+02
    -23.865  0.1723E+02  0.1020E+03
    -23.647  0.5761E+02  0.1145E+03
    -23.429  0.5080E+02  0.1256E+03
    -23.212  0.3640E+02  0.1335E+03
    -22.994  0.2156E+01  0.1340E+03
    -22.776  0.1987E+01  0.1344E+03
    -22.558  0.2256E+02  0.1393E+03
    -22.340  0.5265E+02  0.1508E+03
    -22.122  0.9354E+02  0.1712E+03
    -21.905  0.2180E+02  0.1759E+03
    -21.687  0.2686E+00  0.1760E+03
    -21.469  0.2821E-05  0.1760E+03
    -21.251  0.3398E-14  0.1760E+03
    -21.033  0.0000E+00  0.1760E+03
    -20.815  0.0000E+00  0.1760E+03
    -20.598  0.0000E+00  0.1760E+03
    -20.380  0.0000E+00  0.1760E+03
    -20.162  0.0000E+00  0.1760E+03
    -19.944  0.4459E-13  0.1760E+03
    -19.726  0.1436E-04  0.1760E+03
    -19.508  0.5222E+00  0.1761E+03
    -19.291  0.1043E+02  0.1784E+03
    -19.073  0.3570E+02  0.1862E+03
    -18.855  0.3441E+02  0.1937E+03
    -18.637  0.4630E+02  0.2037E+03
    -18.419  0.3789E+02  0.2120E+03
    -18.201  0.2080E+02  0.2165E+03
    -17.984  0.6755E+01  0.2180E+03
    -17.766  0.2599E-02  0.2180E+03
    -17.548  0.1584E-09  0.2180E+03
    -17.330  0.0000E+00  0.2180E+03
    -17.112  0.0000E+00  0.2180E+03
    -16.894  0.0000E+00  0.2180E+03
    -16.677  0.0000E+00  0.2180E+03
    -16.459  0.0000E+00  0.2180E+03
    -16.241  0.0000E+00  0.2180E+03
    -16.023  0.0000E+00  0.2180E+03
    -15.805  0.0000E+00  0.2180E+03
    -15.587  0.0000E+00  0.2180E+03
    -15.370  0.0000E+00  0.2180E+03
    -15.152  0.0000E+00  0.2180E+03
    -14.934  0.0000E+00  0.2180E+03
    -14.716  0.0000E+00  0.2180E+03
    -14.498  0.0000E+00  0.2180E+03
    -14.280  0.0000E+00  0.2180E+03
    -14.063  0.0000E+00  0.2180E+03
    -13.845  0.0000E+00  0.2180E+03
    -13.627  0.0000E+00  0.2180E+03
    -13.409  0.0000E+00  0.2180E+03
    -13.191  0.0000E+00  0.2180E+03
    -12.973  0.0000E+00  0.2180E+03
    -12.756  0.0000E+00  0.2180E+03
    -12.538  0.0000E+00  0.2180E+03
    -12.320  0.0000E+00  0.2180E+03
    -12.102  0.0000E+00  0.2180E+03
    -11.884  0.0000E+00  0.2180E+03
    -11.666  0.0000E+00  0.2180E+03
    -11.448  0.0000E+00  0.2180E+03
    -11.231  0.0000E+00  0.2180E+03
    -11.013  0.0000E+00  0.2180E+03
    -10.795  0.0000E+00  0.2180E+03
    -10.577  0.0000E+00  0.2180E+03
    -10.359  0.0000E+00  0.2180E+03
    -10.141  0.0000E+00  0.2180E+03
     -9.924  0.0000E+00  0.2180E+03
     -9.706  0.0000E+00  0.2180E+03
     -9.488  0.0000E+00  0.2180E+03
     -9.270  0.0000E+00  0.2180E+03
     -9.052  0.0000E+00  0.2180E+03
     -8.834  0.0000E+00  0.2180E+03
     -8.617  0.0000E+00  0.2180E+03
     -8.399  0.0000E+00  0.2180E+03
     -8.181  0.8075E-11  0.2180E+03
     -7.963  0.9249E-04  0.2180E+03
     -7.745  0.3406E+00  0.2181E+03
     -7.527  0.6514E+01  0.2195E+03
     -7.310  0.8315E+01  0.2213E+03
     -7.092  0.1562E+02  0.2247E+03
     -6.874  0.7026E+01  0.2262E+03
     -6.656  0.1802E+02  0.2302E+03
     -6.438  0.2105E+02  0.2347E+03
     -6.220  0.2375E+02  0.2399E+03
     -6.003  0.1050E+02  0.2422E+03
     -5.785  0.7952E+01  0.2439E+03
     -5.567  0.2656E+00  0.2440E+03
     -5.349  0.3070E-05  0.2440E+03
     -5.131  0.4002E-14  0.2440E+03
     -4.913  0.1467E-13  0.2440E+03
     -4.696  0.2683E-05  0.2440E+03
     -4.478  0.6719E-01  0.2440E+03
     -4.260  0.2957E+01  0.2447E+03
     -4.042  0.5668E+01  0.2459E+03
     -3.824  0.1027E+01  0.2461E+03
     -3.606  0.9041E+01  0.2481E+03
     -3.389  0.1148E+02  0.2506E+03
     -3.171  0.1384E+02  0.2536E+03
     -2.953  0.2333E+02  0.2587E+03
     -2.735  0.2350E+02  0.2638E+03
     -2.517  0.2471E+02  0.2692E+03
     -2.299  0.2149E+02  0.2739E+03
     -2.082  0.1879E+02  0.2780E+03
     -1.864  0.1123E+02  0.2804E+03
     -1.646  0.6315E+01  0.2818E+03
     -1.428  0.9813E+00  0.2820E+03
     -1.210  0.1140E-01  0.2820E+03
     -0.992  0.7933E-07  0.2820E+03
     -0.775  0.7551E-16  0.2820E+03
     -0.557  0.0000E+00  0.2820E+03
     -0.339  0.0000E+00  0.2820E+03
     -0.121  0.0000E+00  0.2820E+03
      0.097  0.7109E-08  0.2820E+03
      0.315  0.3104E-02  0.2820E+03
      0.532  0.4268E+00  0.2821E+03
      0.750  0.1108E+01  0.2823E+03
      0.968  0.5440E+01  0.2835E+03
      1.186  0.8960E+01  0.2855E+03
      1.404  0.1193E+02  0.2881E+03
      1.622  0.1767E+02  0.2919E+03
      1.839  0.2307E+02  0.2969E+03
      2.057  0.2790E+02  0.3030E+03
      2.275  0.2801E+02  0.3091E+03
      2.493  0.2748E+02  0.3151E+03
      2.711  0.3135E+02  0.3219E+03
      2.929  0.3487E+02  0.3295E+03
      3.146  0.3857E+02  0.3379E+03
      3.364  0.4597E+02  0.3480E+03
      3.582  0.5245E+02  0.3594E+03
      3.800  0.5944E+02  0.3723E+03
      4.018  0.6840E+02  0.3872E+03
      4.236  0.6689E+02  0.4018E+03
      4.453  0.6043E+02  0.4150E+03
      4.671  0.5432E+02  0.4268E+03
      4.889  0.4796E+02  0.4372E+03
      5.107  0.4079E+02  0.4461E+03
      5.325  0.3225E+02  0.4531E+03
      5.543  0.2870E+02  0.4594E+03
      5.760  0.2583E+02  0.4650E+03
      5.978  0.1880E+02  0.4691E+03
      6.196  0.1414E+02  0.4722E+03
      6.414  0.7215E+01  0.4738E+03
      6.632  0.7553E+01  0.4754E+03
      6.850  0.1546E+02  0.4788E+03
      7.067  0.1761E+02  0.4826E+03
      7.285  0.1875E+02  0.4867E+03
      7.503  0.2089E+02  0.4913E+03
      7.721  0.1912E+02  0.4954E+03
      7.939  0.2242E+02  0.5003E+03
      8.157  0.2754E+02  0.5063E+03
      8.374  0.2622E+02  0.5120E+03
      8.592  0.2736E+02  0.5180E+03
      8.810  0.3237E+02  0.5250E+03
      9.028  0.3561E+02  0.5328E+03
      9.246  0.3834E+02  0.5411E+03
      9.464  0.3744E+02  0.5493E+03
      9.681  0.3925E+02  0.5578E+03
      9.899  0.3904E+02  0.5663E+03
     10.117  0.3727E+02  0.5745E+03
     10.335  0.3889E+02  0.5829E+03
     10.553  0.3728E+02  0.5911E+03
     10.771  0.3648E+02  0.5990E+03
     10.989  0.3476E+02  0.6066E+03
     11.206  0.3122E+02  0.6134E+03
     11.424  0.2695E+02  0.6193E+03
     11.642  0.1694E+02  0.6229E+03
     11.860  0.4814E+01  0.6240E+03
     12.078  0.3268E-01  0.6240E+03
     12.296  0.1811E-06  0.6240E+03
     12.513  0.1510E-15  0.6240E+03
     12.731  0.0000E+00  0.6240E+03
     12.949  0.0000E+00  0.6240E+03
     13.167  0.0000E+00  0.6240E+03
     13.385  0.0000E+00  0.6240E+03
     13.603  0.0000E+00  0.6240E+03
     13.820  0.0000E+00  0.6240E+03
     14.038  0.0000E+00  0.6240E+03
     14.256  0.0000E+00  0.6240E+03
     14.474  0.0000E+00  0.6240E+03
     14.692  0.0000E+00  0.6240E+03
