  64  64   0   0
  0.1129557E+02  0.8932500E-09  0.9055600E-09  0.8937200E-09  0.5000000E-15
  1.000000000000000E-004
  CAR 
 HECN                                    
     14.50571633    -51.95212185  301      8.80209324      1.00000000
    -51.952  0.0000E+00  0.0000E+00
    -51.731  0.0000E+00  0.0000E+00
    -51.509  0.0000E+00  0.0000E+00
    -51.288  0.0000E+00  0.0000E+00
    -51.066  0.0000E+00  0.0000E+00
    -50.844  0.0000E+00  0.0000E+00
    -50.623  0.0000E+00  0.0000E+00
    -50.401  0.0000E+00  0.0000E+00
    -50.180  0.0000E+00  0.0000E+00
    -49.958  0.0000E+00  0.0000E+00
    -49.737  0.0000E+00  0.0000E+00
    -49.515  0.5012E-17  0.1110E-17
    -49.294  0.1331E-07  0.2949E-08
    -49.072  0.2101E-02  0.4654E-03
    -48.851  0.1277E+00  0.2875E-01
    -48.629  0.2542E+00  0.8507E-01
    -48.408  0.1683E+00  0.1224E+00
    -48.186  0.7793E-01  0.1396E+00
    -47.965  0.1734E-02  0.1400E+00
    -47.743  0.8837E-08  0.1400E+00
    -47.522  0.2915E-07  0.1400E+00
    -47.300  0.3035E-02  0.1407E+00
    -47.079  0.1533E+00  0.1746E+00
    -46.857  0.2065E+00  0.2204E+00
    -46.635  0.1328E+00  0.2498E+00
    -46.414  0.4608E-01  0.2600E+00
    -46.192  0.6773E-04  0.2600E+00
    -45.971  0.1280E-10  0.2600E+00
    -45.749  0.0000E+00  0.2600E+00
    -45.528  0.0000E+00  0.2600E+00
    -45.306  0.0000E+00  0.2600E+00
    -45.085  0.0000E+00  0.2600E+00
    -44.863  0.0000E+00  0.2600E+00
    -44.642  0.0000E+00  0.2600E+00
    -44.420  0.0000E+00  0.2600E+00
    -44.199  0.0000E+00  0.2600E+00
    -43.977  0.0000E+00  0.2600E+00
    -43.756  0.0000E+00  0.2600E+00
    -43.534  0.0000E+00  0.2600E+00
    -43.313  0.0000E+00  0.2600E+00
    -43.091  0.0000E+00  0.2600E+00
    -42.870  0.0000E+00  0.2600E+00
    -42.648  0.0000E+00  0.2600E+00
    -42.426  0.0000E+00  0.2600E+00
    -42.205  0.0000E+00  0.2600E+00
    -41.983  0.0000E+00  0.2600E+00
    -41.762  0.0000E+00  0.2600E+00
    -41.540  0.0000E+00  0.2600E+00
    -41.319  0.0000E+00  0.2600E+00
    -41.097  0.0000E+00  0.2600E+00
    -40.876  0.0000E+00  0.2600E+00
    -40.654  0.0000E+00  0.2600E+00
    -40.433  0.0000E+00  0.2600E+00
    -40.211  0.0000E+00  0.2600E+00
    -39.990  0.0000E+00  0.2600E+00
    -39.768  0.0000E+00  0.2600E+00
    -39.547  0.0000E+00  0.2600E+00
    -39.325  0.0000E+00  0.2600E+00
    -39.104  0.0000E+00  0.2600E+00
    -38.882  0.0000E+00  0.2600E+00
    -38.661  0.0000E+00  0.2600E+00
    -38.439  0.0000E+00  0.2600E+00
    -38.218  0.0000E+00  0.2600E+00
    -37.996  0.0000E+00  0.2600E+00
    -37.774  0.0000E+00  0.2600E+00
    -37.553  0.0000E+00  0.2600E+00
    -37.331  0.0000E+00  0.2600E+00
    -37.110  0.0000E+00  0.2600E+00
    -36.888  0.0000E+00  0.2600E+00
    -36.667  0.0000E+00  0.2600E+00
    -36.445  0.0000E+00  0.2600E+00
    -36.224  0.0000E+00  0.2600E+00
    -36.002  0.0000E+00  0.2600E+00
    -35.781  0.0000E+00  0.2600E+00
    -35.559  0.3291E-13  0.2600E+00
    -35.338  0.2402E-05  0.2600E+00
    -35.116  0.1646E-01  0.2636E+00
    -34.895  0.1869E+00  0.3050E+00
    -34.673  0.1080E+01  0.5443E+00
    -34.452  0.3398E+00  0.6195E+00
    -34.230  0.2125E-02  0.6200E+00
    -34.009  0.7470E-08  0.6200E+00
    -33.787  0.0000E+00  0.6200E+00
    -33.565  0.0000E+00  0.6200E+00
    -33.344  0.0000E+00  0.6200E+00
    -33.122  0.0000E+00  0.6200E+00
    -32.901  0.0000E+00  0.6200E+00
    -32.679  0.0000E+00  0.6200E+00
    -32.458  0.0000E+00  0.6200E+00
    -32.236  0.0000E+00  0.6200E+00
    -32.015  0.0000E+00  0.6200E+00
    -31.793  0.0000E+00  0.6200E+00
    -31.572  0.0000E+00  0.6200E+00
    -31.350  0.0000E+00  0.6200E+00
    -31.129  0.0000E+00  0.6200E+00
    -30.907  0.0000E+00  0.6200E+00
    -30.686  0.0000E+00  0.6200E+00
    -30.464  0.0000E+00  0.6200E+00
    -30.243  0.0000E+00  0.6200E+00
    -30.021  0.0000E+00  0.6200E+00
    -29.800  0.0000E+00  0.6200E+00
    -29.578  0.0000E+00  0.6200E+00
    -29.356  0.0000E+00  0.6200E+00
    -29.135  0.0000E+00  0.6200E+00
    -28.913  0.0000E+00  0.6200E+00
    -28.692  0.0000E+00  0.6200E+00
    -28.470  0.0000E+00  0.6200E+00
    -28.249  0.0000E+00  0.6200E+00
    -28.027  0.0000E+00  0.6200E+00
    -27.806  0.0000E+00  0.6200E+00
    -27.584  0.0000E+00  0.6200E+00
    -27.363  0.0000E+00  0.6200E+00
    -27.141  0.1721E-15  0.6200E+00
    -26.920  0.1156E-06  0.6200E+00
    -26.698  0.7964E-02  0.6218E+00
    -26.477  0.3179E+00  0.6922E+00
    -26.255  0.6878E+00  0.8446E+00
    -26.034  0.5682E+00  0.9704E+00
    -25.812  0.4311E-01  0.9800E+00
    -25.591  0.8584E-04  0.9800E+00
    -25.369  0.9615E-01  0.1001E+01
    -25.147  0.5397E+00  0.1121E+01
    -24.926  0.7436E+00  0.1286E+01
    -24.704  0.3884E+00  0.1372E+01
    -24.483  0.1276E+00  0.1400E+01
    -24.261  0.3705E-03  0.1400E+01
    -24.040  0.2474E-09  0.1400E+01
    -23.818  0.3987E-06  0.1400E+01
    -23.597  0.8670E-02  0.1402E+01
    -23.375  0.1605E+00  0.1437E+01
    -23.154  0.5943E+00  0.1569E+01
    -22.932  0.4849E+00  0.1677E+01
    -22.711  0.3252E+00  0.1749E+01
    -22.489  0.5146E-01  0.1760E+01
    -22.268  0.1902E-01  0.1764E+01
    -22.046  0.2073E+00  0.1810E+01
    -21.825  0.4265E+00  0.1905E+01
    -21.603  0.6493E+00  0.2048E+01
    -21.382  0.5238E+00  0.2164E+01
    -21.160  0.6970E-01  0.2180E+01
    -20.938  0.2720E-03  0.2180E+01
    -20.717  0.1868E-09  0.2180E+01
    -20.495  0.0000E+00  0.2180E+01
    -20.274  0.0000E+00  0.2180E+01
    -20.052  0.0000E+00  0.2180E+01
    -19.831  0.0000E+00  0.2180E+01
    -19.609  0.0000E+00  0.2180E+01
    -19.388  0.0000E+00  0.2180E+01
    -19.166  0.0000E+00  0.2180E+01
    -18.945  0.0000E+00  0.2180E+01
    -18.723  0.0000E+00  0.2180E+01
    -18.502  0.0000E+00  0.2180E+01
    -18.280  0.0000E+00  0.2180E+01
    -18.059  0.0000E+00  0.2180E+01
    -17.837  0.0000E+00  0.2180E+01
    -17.616  0.0000E+00  0.2180E+01
    -17.394  0.0000E+00  0.2180E+01
    -17.173  0.0000E+00  0.2180E+01
    -16.951  0.0000E+00  0.2180E+01
    -16.729  0.0000E+00  0.2180E+01
    -16.508  0.0000E+00  0.2180E+01
    -16.286  0.0000E+00  0.2180E+01
    -16.065  0.0000E+00  0.2180E+01
    -15.843  0.0000E+00  0.2180E+01
    -15.622  0.0000E+00  0.2180E+01
    -15.400  0.0000E+00  0.2180E+01
    -15.179  0.0000E+00  0.2180E+01
    -14.957  0.0000E+00  0.2180E+01
    -14.736  0.0000E+00  0.2180E+01
    -14.514  0.0000E+00  0.2180E+01
    -14.293  0.0000E+00  0.2180E+01
    -14.071  0.0000E+00  0.2180E+01
    -13.850  0.0000E+00  0.2180E+01
    -13.628  0.0000E+00  0.2180E+01
    -13.407  0.0000E+00  0.2180E+01
    -13.185  0.0000E+00  0.2180E+01
    -12.964  0.0000E+00  0.2180E+01
    -12.742  0.0000E+00  0.2180E+01
    -12.520  0.0000E+00  0.2180E+01
    -12.299  0.0000E+00  0.2180E+01
    -12.077  0.0000E+00  0.2180E+01
    -11.856  0.0000E+00  0.2180E+01
    -11.634  0.0000E+00  0.2180E+01
    -11.413  0.0000E+00  0.2180E+01
    -11.191  0.0000E+00  0.2180E+01
    -10.970  0.0000E+00  0.2180E+01
    -10.748  0.0000E+00  0.2180E+01
    -10.527  0.0000E+00  0.2180E+01
    -10.305  0.0000E+00  0.2180E+01
    -10.084  0.0000E+00  0.2180E+01
     -9.862  0.0000E+00  0.2180E+01
     -9.641  0.0000E+00  0.2180E+01
     -9.419  0.0000E+00  0.2180E+01
     -9.198  0.0000E+00  0.2180E+01
     -8.976  0.0000E+00  0.2180E+01
     -8.755  0.0000E+00  0.2180E+01
     -8.533  0.0000E+00  0.2180E+01
     -8.311  0.0000E+00  0.2180E+01
     -8.090  0.0000E+00  0.2180E+01
     -7.868  0.1036E-09  0.2180E+01
     -7.647  0.5095E-04  0.2180E+01
     -7.425  0.1739E-01  0.2184E+01
     -7.204  0.7094E-01  0.2200E+01
     -6.982  0.8041E-01  0.2217E+01
     -6.761  0.1506E+00  0.2251E+01
     -6.539  0.9677E-01  0.2272E+01
     -6.318  0.1308E+00  0.2301E+01
     -6.096  0.2539E+00  0.2357E+01
     -5.875  0.2051E+00  0.2403E+01
     -5.653  0.1061E+00  0.2426E+01
     -5.432  0.6128E-01  0.2440E+01
     -5.210  0.3457E-03  0.2440E+01
     -4.989  0.3204E-09  0.2440E+01
     -4.767  0.0000E+00  0.2440E+01
     -4.546  0.1360E-13  0.2440E+01
     -4.324  0.4850E-06  0.2440E+01
     -4.102  0.2134E-02  0.2440E+01
     -3.881  0.3850E-01  0.2449E+01
     -3.659  0.4773E-01  0.2460E+01
     -3.438  0.3531E-01  0.2467E+01
     -3.216  0.9081E-01  0.2488E+01
     -2.995  0.1081E+00  0.2511E+01
     -2.773  0.1565E+00  0.2546E+01
     -2.552  0.2124E+00  0.2593E+01
     -2.330  0.2378E+00  0.2646E+01
     -2.109  0.2455E+00  0.2700E+01
     -1.887  0.2314E+00  0.2752E+01
     -1.666  0.1807E+00  0.2792E+01
     -1.444  0.9237E-01  0.2812E+01
     -1.223  0.3321E-01  0.2819E+01
     -1.001  0.2918E-02  0.2820E+01
     -0.780  0.3507E-05  0.2820E+01
     -0.558  0.8337E-12  0.2820E+01
     -0.337  0.0000E+00  0.2820E+01
     -0.115  0.0000E+00  0.2820E+01
      0.107  0.0000E+00  0.2820E+01
      0.328  0.6172E-14  0.2820E+01
      0.550  0.2729E-06  0.2820E+01
      0.771  0.1339E-02  0.2820E+01
      0.993  0.6261E-02  0.2822E+01
      1.214  0.3660E-01  0.2830E+01
      1.436  0.8457E-01  0.2849E+01
      1.657  0.9183E-01  0.2869E+01
      1.879  0.1561E+00  0.2903E+01
      2.100  0.1972E+00  0.2947E+01
      2.322  0.2613E+00  0.3005E+01
      2.543  0.3134E+00  0.3074E+01
      2.765  0.2658E+00  0.3133E+01
      2.986  0.2933E+00  0.3198E+01
      3.208  0.3527E+00  0.3276E+01
      3.429  0.3663E+00  0.3358E+01
      3.651  0.3803E+00  0.3442E+01
      3.872  0.4633E+00  0.3544E+01
      4.094  0.5510E+00  0.3667E+01
      4.316  0.6183E+00  0.3803E+01
      4.537  0.6554E+00  0.3949E+01
      4.759  0.6276E+00  0.4088E+01
      4.980  0.5952E+00  0.4220E+01
      5.202  0.4964E+00  0.4330E+01
      5.423  0.3963E+00  0.4417E+01
      5.645  0.3623E+00  0.4498E+01
      5.866  0.2964E+00  0.4563E+01
      6.088  0.2861E+00  0.4627E+01
      6.309  0.1955E+00  0.4670E+01
      6.531  0.1615E+00  0.4706E+01
      6.752  0.1178E+00  0.4732E+01
      6.974  0.4707E-01  0.4742E+01
      7.195  0.1094E+00  0.4766E+01
      7.417  0.1705E+00  0.4804E+01
      7.638  0.1799E+00  0.4844E+01
      7.860  0.2197E+00  0.4893E+01
      8.081  0.2059E+00  0.4938E+01
      8.303  0.1852E+00  0.4979E+01
      8.525  0.2529E+00  0.5035E+01
      8.746  0.2653E+00  0.5094E+01
      8.968  0.2775E+00  0.5156E+01
      9.189  0.3341E+00  0.5230E+01
      9.411  0.3744E+00  0.5313E+01
      9.632  0.4058E+00  0.5402E+01
      9.854  0.4563E+00  0.5504E+01
     10.075  0.4704E+00  0.5608E+01
     10.297  0.4631E+00  0.5710E+01
     10.518  0.4911E+00  0.5819E+01
     10.740  0.4707E+00  0.5923E+01
     10.961  0.5027E+00  0.6035E+01
     11.183  0.4595E+00  0.6137E+01
     11.404  0.3765E+00  0.6220E+01
     11.626  0.8989E-01  0.6240E+01
     11.847  0.5677E-03  0.6240E+01
     12.069  0.2092E-08  0.6240E+01
     12.290  0.0000E+00  0.6240E+01
     12.512  0.0000E+00  0.6240E+01
     12.734  0.0000E+00  0.6240E+01
     12.955  0.0000E+00  0.6240E+01
     13.177  0.0000E+00  0.6240E+01
     13.398  0.0000E+00  0.6240E+01
     13.620  0.0000E+00  0.6240E+01
     13.841  0.0000E+00  0.6240E+01
     14.063  0.0000E+00  0.6240E+01
     14.284  0.0000E+00  0.6240E+01
     14.506  0.0000E+00  0.6240E+01
